# Region type : patch top
# Faces  :   1000
# Area   :   6.239977e-01
# Time       	sum(phiSub)
10.0024      	6.623110e-11
10.0048      	6.723105e-11
10.0073      	6.757124e-11
10.0097      	6.749282e-11
10.0121      	6.747510e-11
10.0145      	6.746318e-11
10.0169      	6.745897e-11
10.0194      	6.744967e-11
10.0218      	6.742739e-11
10.0242      	6.740274e-11
10.0266      	6.738626e-11
10.0291      	6.738512e-11
10.0315      	6.738502e-11
10.0339      	6.738685e-11
10.0363      	6.739718e-11
10.0387      	6.740404e-11
10.0412      	6.741129e-11
10.0436      	6.742908e-11
10.046       	6.743409e-11
10.0484      	6.744338e-11
10.0508      	6.744064e-11
10.0533      	6.745131e-11
10.0557      	6.745750e-11
10.0581      	6.746603e-11
10.0605      	6.747355e-11
10.063       	6.748211e-11
10.0654      	6.748985e-11
10.0678      	6.749783e-11
10.0702      	6.750612e-11
10.0726      	6.751509e-11
10.0751      	6.752277e-11
10.0775      	6.752642e-11
10.0799      	6.753773e-11
10.0823      	6.754164e-11
10.0847      	6.754980e-11
10.0872      	6.755764e-11
10.0896      	6.756660e-11
10.092       	6.757511e-11
10.0944      	6.758353e-11
10.0969      	6.759217e-11
10.0993      	6.759999e-11
10.1017      	6.760791e-11
10.1041      	6.761559e-11
10.1065      	6.762307e-11
10.109       	6.763143e-11
10.1114      	6.763974e-11
10.1138      	6.764862e-11
10.1162      	6.765782e-11
10.1186      	6.766834e-11
10.1211      	6.767932e-11
10.1235      	6.770173e-11
10.1259      	6.772842e-11
10.1283      	6.777574e-11
10.1308      	6.780213e-11
10.1332      	6.781952e-11
10.1356      	6.777791e-11
10.138       	6.773636e-11
10.1404      	6.772666e-11
10.1429      	6.773333e-11
10.1453      	6.773885e-11
10.1477      	6.774660e-11
10.1501      	6.775450e-11
10.1525      	6.776344e-11
10.155       	6.778033e-11
10.1574      	6.779302e-11
10.1598      	6.780231e-11
10.1622      	6.779485e-11
10.1646      	6.778797e-11
10.1671      	6.779321e-11
10.1695      	6.779688e-11
10.1719      	6.780512e-11
10.1743      	6.781167e-11
10.1768      	6.781511e-11
10.1792      	6.782421e-11
10.1816      	6.783840e-11
10.184       	6.785412e-11
10.1864      	6.787136e-11
10.1889      	6.788543e-11
10.1913      	6.788598e-11
10.1937      	6.787775e-11
10.1961      	6.788263e-11
10.1985      	6.788632e-11
10.201       	6.788942e-11
10.2034      	6.789412e-11
10.2058      	6.790184e-11
10.2082      	6.790987e-11
10.2107      	6.791789e-11
10.2131      	6.792492e-11
10.2155      	6.793298e-11
10.2179      	6.794066e-11
10.2203      	6.794855e-11
10.2228      	6.795656e-11
10.2252      	6.796458e-11
10.2276      	6.797275e-11
10.23        	6.798114e-11
10.2324      	6.798719e-11
10.2349      	6.799352e-11
10.2373      	6.800216e-11
10.2397      	6.801056e-11
10.2421      	6.802008e-11
10.2446      	6.803233e-11
10.247       	6.804588e-11
10.2494      	6.806838e-11
10.2518      	6.810028e-11
10.2542      	6.812618e-11
10.2567      	6.813687e-11
10.2591      	6.810966e-11
10.2615      	6.810198e-11
10.2639      	6.810624e-11
10.2663      	6.811477e-11
10.2688      	6.812343e-11
10.2712      	6.813307e-11
10.2736      	6.814126e-11
10.276       	6.814921e-11
10.2785      	6.815530e-11
10.2809      	6.817051e-11
10.2833      	6.818196e-11
10.2857      	6.819867e-11
10.2881      	6.821049e-11
10.2906      	6.821853e-11
10.293       	6.823025e-11
10.2954      	6.824051e-11
10.2978      	6.825085e-11
10.3002      	6.826236e-11
10.3027      	6.827470e-11
10.3051      	6.828682e-11
10.3075      	6.829970e-11
10.3099      	6.831345e-11
10.3123      	6.832862e-11
10.3148      	6.834114e-11
10.3172      	6.835556e-11
10.3196      	6.836877e-11
10.322       	6.838310e-11
10.3245      	6.839669e-11
10.3269      	6.841066e-11
10.3293      	6.842512e-11
10.3317      	6.844058e-11
10.3341      	6.845749e-11
10.3366      	6.847222e-11
10.339       	6.848786e-11
10.3414      	6.850345e-11
10.3438      	6.851992e-11
10.3462      	6.853582e-11
10.3487      	6.854874e-11
10.3511      	6.856251e-11
10.3535      	6.857807e-11
10.3559      	6.859224e-11
10.3584      	6.860642e-11
10.3608      	6.862422e-11
10.3632      	6.863941e-11
10.3656      	6.865894e-11
10.368       	6.867676e-11
10.3705      	6.869489e-11
10.3729      	6.871193e-11
10.3753      	6.873068e-11
10.3777      	6.874889e-11
10.3801      	6.876762e-11
10.3826      	6.878348e-11
10.385       	6.880028e-11
10.3874      	6.881812e-11
10.3898      	6.883554e-11
10.3923      	6.885262e-11
10.3947      	6.887012e-11
10.3971      	6.888806e-11
10.3995      	6.890678e-11
10.4019      	6.892604e-11
10.4044      	6.895139e-11
10.4068      	6.896662e-11
10.4092      	6.898843e-11
10.4116      	6.900936e-11
10.414       	6.903023e-11
10.4165      	6.904894e-11
10.4189      	6.907003e-11
10.4213      	6.908961e-11
10.4237      	6.911064e-11
10.4262      	6.913239e-11
10.4286      	6.915374e-11
10.431       	6.917592e-11
10.4334      	6.919671e-11
10.4358      	6.921840e-11
10.4383      	6.924025e-11
10.4407      	6.926313e-11
10.4431      	6.928403e-11
10.4455      	6.930644e-11
10.4479      	6.932634e-11
10.4504      	6.934954e-11
10.4528      	6.936962e-11
10.4552      	6.939164e-11
10.4576      	6.941366e-11
10.46        	6.943576e-11
10.4625      	6.946023e-11
10.4649      	6.948260e-11
10.4673      	6.950506e-11
10.4697      	6.952760e-11
10.4722      	6.955010e-11
10.4746      	6.957314e-11
10.477       	6.959451e-11
10.4794      	6.961574e-11
10.4818      	6.963764e-11
10.4843      	6.966068e-11
10.4867      	6.968395e-11
10.4891      	6.970648e-11
10.4915      	6.972989e-11
10.4939      	6.975216e-11
10.4964      	6.977487e-11
10.4988      	6.979673e-11
10.5012      	6.981897e-11
10.5036      	6.984126e-11
10.5061      	6.986308e-11
10.5085      	6.988532e-11
10.5109      	6.990765e-11
10.5133      	6.992985e-11
10.5157      	6.995184e-11
10.5182      	6.997500e-11
10.5206      	6.999464e-11
10.523       	7.001580e-11
10.5254      	7.003739e-11
10.5278      	7.005822e-11
10.5303      	7.007917e-11
10.5327      	7.010127e-11
10.5351      	7.012021e-11
10.5375      	7.014322e-11
10.54        	7.016323e-11
10.5424      	7.018487e-11
10.5448      	7.020524e-11
10.5472      	7.022523e-11
10.5496      	7.024525e-11
10.5521      	7.026509e-11
10.5545      	7.028427e-11
10.5569      	7.030408e-11
10.5593      	7.032363e-11
10.5617      	7.034243e-11
10.5642      	7.036058e-11
10.5666      	7.037949e-11
10.569       	7.039815e-11
10.5714      	7.041653e-11
10.5738      	7.043474e-11
10.5763      	7.045142e-11
10.5787      	7.046953e-11
10.5811      	7.048645e-11
10.5835      	7.050344e-11
10.586       	7.052091e-11
10.5884      	7.053915e-11
10.5908      	7.055521e-11
10.5932      	7.057125e-11
10.5956      	7.058596e-11
10.5981      	7.060284e-11
10.6005      	7.061835e-11
10.6029      	7.063322e-11
10.6053      	7.064664e-11
10.6077      	7.065926e-11
10.6102      	7.067170e-11
10.6126      	7.068403e-11
10.615       	7.069461e-11
10.6174      	7.070694e-11
10.6199      	7.072147e-11
10.6223      	7.073426e-11
10.6247      	7.074679e-11
10.6271      	7.075881e-11
10.6295      	7.077045e-11
10.632       	7.078197e-11
10.6344      	7.079280e-11
10.6368      	7.080317e-11
10.6392      	7.081263e-11
10.6416      	7.082210e-11
10.6441      	7.083104e-11
10.6465      	7.083835e-11
10.6489      	7.084666e-11
10.6513      	7.085628e-11
10.6538      	7.086461e-11
10.6562      	7.087375e-11
10.6586      	7.088052e-11
10.661       	7.088748e-11
10.6634      	7.089398e-11
10.6659      	7.090016e-11
10.6683      	7.090607e-11
10.6707      	7.091128e-11
10.6731      	7.091725e-11
10.6755      	7.092097e-11
10.678       	7.092452e-11
10.6804      	7.092849e-11
10.6828      	7.093233e-11
10.6852      	7.093511e-11
10.6877      	7.093719e-11
10.6901      	7.094020e-11
10.6925      	7.094232e-11
10.6949      	7.094435e-11
10.6973      	7.094565e-11
10.6998      	7.094667e-11
10.7022      	7.094775e-11
10.7046      	7.094858e-11
10.707       	7.094960e-11
10.7094      	7.094987e-11
10.7119      	7.094989e-11
10.7143      	7.094911e-11
10.7167      	7.094778e-11
10.7191      	7.094638e-11
10.7215      	7.094533e-11
10.724       	7.094568e-11
10.7264      	7.094797e-11
10.7288      	7.095410e-11
10.7312      	7.096077e-11
10.7337      	7.096135e-11
10.7361      	7.094893e-11
10.7385      	7.092176e-11
10.7409      	7.090888e-11
10.7433      	7.090666e-11
10.7458      	7.091125e-11
10.7482      	7.091148e-11
10.7506      	7.091617e-11
10.753       	7.090682e-11
10.7554      	7.087657e-11
10.7579      	7.086110e-11
10.7603      	7.085049e-11
10.7627      	7.084003e-11
10.7651      	7.082987e-11
10.7676      	7.081992e-11
10.77        	7.080885e-11
10.7724      	7.079864e-11
10.7748      	7.078782e-11
10.7772      	7.077731e-11
10.7797      	7.076519e-11
10.7821      	7.074929e-11
10.7845      	7.074792e-11
10.7869      	7.073476e-11
10.7893      	7.071968e-11
10.7918      	7.070489e-11
10.7942      	7.069070e-11
10.7966      	7.067807e-11
10.799       	7.066479e-11
10.8015      	7.065088e-11
10.8039      	7.063549e-11
10.8063      	7.062095e-11
10.8087      	7.060648e-11
10.8111      	7.059142e-11
10.8136      	7.057675e-11
10.816       	7.056143e-11
10.8184      	7.054459e-11
10.8208      	7.052846e-11
10.8232      	7.051158e-11
10.8257      	7.049491e-11
10.8281      	7.047849e-11
10.8305      	7.046133e-11
10.8329      	7.044408e-11
10.8354      	7.042668e-11
10.8378      	7.040893e-11
10.8402      	7.039020e-11
10.8426      	7.037292e-11
10.845       	7.035479e-11
10.8475      	7.033617e-11
10.8499      	7.031707e-11
10.8523      	7.029785e-11
10.8547      	7.027867e-11
10.8571      	7.025935e-11
10.8596      	7.023969e-11
10.862       	7.022004e-11
10.8644      	7.019801e-11
10.8668      	7.017767e-11
10.8692      	7.015757e-11
10.8717      	7.013752e-11
10.8741      	7.011837e-11
10.8765      	7.009861e-11
10.8789      	7.007714e-11
10.8814      	7.005589e-11
10.8838      	7.003531e-11
10.8862      	7.001479e-11
10.8886      	6.999489e-11
10.891       	6.997377e-11
10.8935      	6.995267e-11
10.8959      	6.993130e-11
10.8983      	6.991163e-11
10.9007      	6.989062e-11
10.9031      	6.986937e-11
10.9056      	6.984814e-11
10.908       	6.982653e-11
10.9104      	6.980552e-11
10.9128      	6.978429e-11
10.9153      	6.976270e-11
10.9177      	6.974226e-11
10.9201      	6.972014e-11
10.9225      	6.969852e-11
10.9249      	6.967691e-11
10.9274      	6.965537e-11
10.9298      	6.963368e-11
10.9322      	6.961241e-11
10.9346      	6.959104e-11
10.937       	6.956978e-11
10.9395      	6.954850e-11
10.9419      	6.952729e-11
10.9443      	6.950634e-11
10.9467      	6.948496e-11
10.9492      	6.946410e-11
10.9516      	6.944247e-11
10.954       	6.942103e-11
10.9564      	6.940037e-11
10.9588      	6.937945e-11
10.9613      	6.935875e-11
10.9637      	6.933804e-11
10.9661      	6.931720e-11
10.9685      	6.929210e-11
10.9709      	6.927076e-11
10.9734      	6.924989e-11
10.9758      	6.922902e-11
10.9782      	6.920811e-11
10.9806      	6.918830e-11
10.9831      	6.916877e-11
10.9855      	6.914901e-11
10.9879      	6.912980e-11
10.9903      	6.911068e-11
10.9927      	6.909121e-11
10.9952      	6.907125e-11
10.9976      	6.905201e-11
11           	6.903355e-11
11.0024      	6.898479e-11
11.0049      	6.899866e-11
11.0073      	6.897379e-11
11.0098      	6.895766e-11
11.0122      	6.893924e-11
11.0146      	6.892162e-11
11.0171      	6.890401e-11
11.0195      	6.888641e-11
11.022       	6.886806e-11
11.0244      	6.885026e-11
11.0268      	6.883331e-11
11.0293      	6.881856e-11
11.0317      	6.880181e-11
11.0341      	6.878586e-11
11.0366      	6.877030e-11
11.039       	6.875481e-11
11.0415      	6.873945e-11
11.0439      	6.872459e-11
11.0463      	6.871013e-11
11.0488      	6.869565e-11
11.0512      	6.868154e-11
11.0537      	6.866790e-11
11.0561      	6.865449e-11
11.0585      	6.864175e-11
11.061       	6.862818e-11
11.0634      	6.861530e-11
11.0659      	6.860302e-11
11.0683      	6.859051e-11
11.0707      	6.857733e-11
11.0732      	6.856513e-11
11.0756      	6.855346e-11
11.078       	6.854260e-11
11.0805      	6.853132e-11
11.0829      	6.852060e-11
11.0854      	6.851021e-11
11.0878      	6.849981e-11
11.0902      	6.849036e-11
11.0927      	6.848151e-11
11.0951      	6.847265e-11
11.0976      	6.846424e-11
11.1         	6.845573e-11
11.1024      	6.844651e-11
11.1049      	6.843729e-11
11.1073      	6.842982e-11
11.1098      	6.842767e-11
11.1122      	6.842358e-11
11.1146      	6.841121e-11
11.1171      	6.840010e-11
11.1195      	6.839547e-11
11.122       	6.838872e-11
11.1244      	6.838314e-11
11.1268      	6.837731e-11
11.1293      	6.837208e-11
11.1317      	6.836638e-11
11.1341      	6.836167e-11
11.1366      	6.835637e-11
11.139       	6.835121e-11
11.1415      	6.834687e-11
11.1439      	6.834209e-11
11.1463      	6.833986e-11
11.1488      	6.833614e-11
11.1512      	6.833319e-11
11.1537      	6.833022e-11
11.1561      	6.832805e-11
11.1585      	6.832553e-11
11.161       	6.832392e-11
11.1634      	6.832250e-11
11.1659      	6.832074e-11
11.1683      	6.831939e-11
11.1707      	6.831810e-11
11.1732      	6.831732e-11
11.1756      	6.831679e-11
11.178       	6.831636e-11
11.1805      	6.831584e-11
11.1829      	6.831504e-11
11.1854      	6.831516e-11
11.1878      	6.831569e-11
11.1902      	6.831630e-11
11.1927      	6.831761e-11
11.1951      	6.831794e-11
11.1976      	6.831921e-11
11.2         	6.832142e-11
11.2024      	6.832390e-11
11.2049      	6.832569e-11
11.2073      	6.832798e-11
11.2098      	6.833118e-11
11.2122      	6.833414e-11
11.2146      	6.833717e-11
11.2171      	6.834079e-11
11.2195      	6.834424e-11
11.222       	6.834744e-11
11.2244      	6.835112e-11
11.2268      	6.835513e-11
11.2293      	6.835969e-11
11.2317      	6.836388e-11
11.2341      	6.836823e-11
11.2366      	6.837242e-11
11.239       	6.837736e-11
11.2415      	6.838242e-11
11.2439      	6.838812e-11
11.2463      	6.839368e-11
11.2488      	6.839913e-11
11.2512      	6.840472e-11
11.2537      	6.841052e-11
11.2561      	6.841636e-11
11.2585      	6.842250e-11
11.261       	6.842868e-11
11.2634      	6.843512e-11
11.2659      	6.844182e-11
11.2683      	6.844834e-11
11.2707      	6.845517e-11
11.2732      	6.846175e-11
11.2756      	6.846517e-11
11.278       	6.846909e-11
11.2805      	6.847617e-11
11.2829      	6.848411e-11
11.2854      	6.849165e-11
11.2878      	6.849965e-11
11.2902      	6.850851e-11
11.2927      	6.851766e-11
11.2951      	6.852600e-11
11.2976      	6.853447e-11
11.3         	6.854129e-11
11.3024      	6.855293e-11
11.3049      	6.856587e-11
11.3073      	6.858205e-11
11.3098      	6.859385e-11
11.3122      	6.860922e-11
11.3146      	6.862794e-11
11.3171      	6.865119e-11
11.3195      	6.865596e-11
11.322       	6.864474e-11
11.3244      	6.863044e-11
11.3268      	6.863277e-11
11.3293      	6.864083e-11
11.3317      	6.865101e-11
11.3341      	6.865451e-11
11.3366      	6.866354e-11
11.339       	6.867152e-11
11.3415      	6.867964e-11
11.3439      	6.868745e-11
11.3463      	6.869540e-11
11.3488      	6.870393e-11
11.3512      	6.871163e-11
11.3537      	6.871927e-11
11.3561      	6.872740e-11
11.3585      	6.873539e-11
11.361       	6.874102e-11
11.3634      	6.874983e-11
11.3659      	6.875555e-11
11.3683      	6.875964e-11
11.3707      	6.875909e-11
11.3732      	6.876216e-11
11.3756      	6.878156e-11
11.378       	6.880027e-11
11.3805      	6.881617e-11
11.3829      	6.882458e-11
11.3854      	6.883330e-11
11.3878      	6.884125e-11
11.3902      	6.884769e-11
11.3927      	6.885480e-11
11.3951      	6.886193e-11
11.3976      	6.886920e-11
11.4         	6.887647e-11
11.4024      	6.888401e-11
11.4049      	6.889160e-11
11.4073      	6.889896e-11
11.4098      	6.890597e-11
11.4122      	6.891332e-11
11.4146      	6.892076e-11
11.4171      	6.892802e-11
11.4195      	6.893545e-11
11.422       	6.894250e-11
11.4244      	6.894927e-11
11.4268      	6.895506e-11
11.4293      	6.896184e-11
11.4317      	6.896940e-11
11.4341      	6.897516e-11
11.4366      	6.898180e-11
11.439       	6.898825e-11
11.4415      	6.899461e-11
11.4439      	6.900089e-11
11.4463      	6.900713e-11
11.4488      	6.901391e-11
11.4512      	6.901971e-11
11.4537      	6.902565e-11
11.4561      	6.903103e-11
11.4585      	6.903652e-11
11.461       	6.904213e-11
11.4634      	6.904757e-11
11.4659      	6.905234e-11
11.4683      	6.905741e-11
11.4707      	6.906316e-11
11.4732      	6.906834e-11
11.4756      	6.907337e-11
11.478       	6.907844e-11
11.4805      	6.908238e-11
11.4829      	6.908724e-11
11.4854      	6.909185e-11
11.4878      	6.909602e-11
11.4902      	6.910050e-11
11.4927      	6.910489e-11
11.4951      	6.910895e-11
11.4976      	6.911318e-11
11.5         	6.911669e-11
11.5024      	6.911954e-11
11.5049      	6.912288e-11
11.5073      	6.912649e-11
11.5098      	6.913042e-11
11.5122      	6.913442e-11
11.5146      	6.913891e-11
11.5171      	6.914331e-11
11.5195      	6.914884e-11
11.522       	6.915685e-11
11.5244      	6.916577e-11
11.5268      	6.916260e-11
11.5293      	6.913969e-11
11.5317      	6.913035e-11
11.5341      	6.913465e-11
11.5366      	6.913965e-11
11.539       	6.914519e-11
11.5415      	6.914800e-11
11.5439      	6.915184e-11
11.5463      	6.915386e-11
11.5488      	6.915674e-11
11.5512      	6.915922e-11
11.5537      	6.916167e-11
11.5561      	6.916349e-11
11.5585      	6.916491e-11
11.561       	6.916618e-11
11.5634      	6.916720e-11
11.5659      	6.916757e-11
11.5683      	6.916820e-11
11.5707      	6.916800e-11
11.5732      	6.916823e-11
11.5756      	6.916882e-11
11.578       	6.916913e-11
11.5805      	6.916928e-11
11.5829      	6.916940e-11
11.5854      	6.916814e-11
11.5878      	6.916905e-11
11.5902      	6.916760e-11
11.5927      	6.916838e-11
11.5951      	6.916745e-11
11.5976      	6.916661e-11
11.6         	6.916591e-11
11.6024      	6.916486e-11
11.6049      	6.916383e-11
11.6073      	6.916297e-11
11.6098      	6.916157e-11
11.6122      	6.916018e-11
11.6146      	6.915852e-11
11.6171      	6.915728e-11
11.6195      	6.915540e-11
11.622       	6.915353e-11
11.6244      	6.915148e-11
11.6268      	6.914928e-11
11.6293      	6.914724e-11
11.6317      	6.914510e-11
11.6341      	6.914272e-11
11.6366      	6.914055e-11
11.639       	6.913774e-11
11.6415      	6.913559e-11
11.6439      	6.913302e-11
11.6463      	6.913009e-11
11.6488      	6.912791e-11
11.6512      	6.912378e-11
11.6537      	6.912192e-11
11.6561      	6.911715e-11
11.6585      	6.911506e-11
11.661       	6.911231e-11
11.6634      	6.910770e-11
11.6659      	6.910476e-11
11.6683      	6.910160e-11
11.6707      	6.909741e-11
11.6732      	6.909416e-11
11.6756      	6.909034e-11
11.678       	6.908685e-11
11.6805      	6.908310e-11
11.6829      	6.907925e-11
11.6854      	6.907525e-11
11.6878      	6.907097e-11
11.6902      	6.906732e-11
11.6927      	6.906350e-11
11.6951      	6.906016e-11
11.6976      	6.905490e-11
11.7         	6.905297e-11
11.7024      	6.905127e-11
11.7049      	6.905254e-11
11.7073      	6.905742e-11
11.7098      	6.905543e-11
11.7122      	6.904577e-11
11.7146      	6.903342e-11
11.7171      	6.902195e-11
11.7195      	6.901318e-11
11.722       	6.900786e-11
11.7244      	6.900183e-11
11.7268      	6.899609e-11
11.7293      	6.899046e-11
11.7317      	6.898453e-11
11.7341      	6.898187e-11
11.7366      	6.897288e-11
11.739       	6.896737e-11
11.7415      	6.896267e-11
11.7439      	6.895373e-11
11.7463      	6.894961e-11
11.7488      	6.894222e-11
11.7512      	6.893624e-11
11.7537      	6.892961e-11
11.7561      	6.892335e-11
11.7585      	6.891696e-11
11.761       	6.891042e-11
11.7634      	6.890402e-11
11.7659      	6.889702e-11
11.7683      	6.889050e-11
11.7707      	6.888365e-11
11.7732      	6.887522e-11
11.7756      	6.887043e-11
11.778       	6.886293e-11
11.7805      	6.885497e-11
11.7829      	6.884742e-11
11.7854      	6.883998e-11
11.7878      	6.883010e-11
11.7902      	6.882462e-11
11.7927      	6.881938e-11
11.7951      	6.881324e-11
11.7976      	6.881275e-11
11.8         	6.881332e-11
11.8024      	6.879996e-11
11.8049      	6.878797e-11
11.8073      	6.877748e-11
11.8098      	6.876823e-11
11.8122      	6.875943e-11
11.8146      	6.875197e-11
11.8171      	6.874412e-11
11.8195      	6.873583e-11
11.822       	6.872803e-11
11.8244      	6.872033e-11
11.8268      	6.871263e-11
11.8293      	6.870502e-11
11.8317      	6.869720e-11
11.8341      	6.868981e-11
11.8366      	6.868264e-11
11.839       	6.867579e-11
11.8415      	6.866988e-11
11.8439      	6.866473e-11
11.8463      	6.866368e-11
11.8488      	6.866369e-11
11.8512      	6.867874e-11
11.8537      	6.868680e-11
11.8561      	6.867066e-11
11.8585      	6.861779e-11
11.861       	6.859230e-11
11.8634      	6.858800e-11
11.8659      	6.857130e-11
11.8683      	6.856010e-11
11.8707      	6.854946e-11
11.8732      	6.853572e-11
11.8756      	6.852268e-11
11.878       	6.851062e-11
11.8805      	6.849877e-11
11.8829      	6.848767e-11
11.8854      	6.847701e-11
11.8878      	6.846679e-11
11.8902      	6.845647e-11
11.8927      	6.844602e-11
11.8951      	6.843668e-11
11.8976      	6.842594e-11
11.9         	6.841521e-11
11.9024      	6.840443e-11
11.9049      	6.839344e-11
11.9073      	6.838183e-11
11.9098      	6.837055e-11
11.9122      	6.835947e-11
11.9146      	6.834806e-11
11.9171      	6.833668e-11
11.9195      	6.832519e-11
11.922       	6.831337e-11
11.9244      	6.830207e-11
11.9268      	6.829060e-11
11.9293      	6.827889e-11
11.9317      	6.826716e-11
11.9341      	6.825509e-11
11.9366      	6.824242e-11
11.939       	6.823057e-11
11.9415      	6.821741e-11
11.9439      	6.820517e-11
11.9463      	6.819257e-11
11.9488      	6.818071e-11
11.9512      	6.816696e-11
11.9537      	6.815439e-11
11.9561      	6.814127e-11
11.9585      	6.812802e-11
11.961       	6.811535e-11
11.9634      	6.810244e-11
11.9659      	6.808879e-11
11.9683      	6.807514e-11
11.9707      	6.806204e-11
11.9732      	6.804832e-11
11.9756      	6.803510e-11
11.978       	6.802045e-11
11.9805      	6.800727e-11
11.9829      	6.799302e-11
11.9854      	6.797909e-11
11.9878      	6.796509e-11
11.9902      	6.795096e-11
11.9927      	6.793690e-11
11.9951      	6.792267e-11
11.9976      	6.790797e-11
12           	6.789353e-11
12.0025      	6.788576e-11
12.0049      	6.786619e-11
12.0074      	6.785019e-11
12.0098      	6.783330e-11
12.0123      	6.781839e-11
12.0147      	6.780324e-11
12.0172      	6.778817e-11
12.0197      	6.777283e-11
12.0221      	6.775742e-11
12.0246      	6.774227e-11
12.027       	6.772668e-11
12.0295      	6.771078e-11
12.0319      	6.769505e-11
12.0344      	6.767884e-11
12.0369      	6.766287e-11
12.0393      	6.764703e-11
12.0418      	6.763089e-11
12.0442      	6.761415e-11
12.0467      	6.759803e-11
12.0491      	6.758108e-11
12.0516      	6.756399e-11
12.0541      	6.754695e-11
12.0565      	6.753024e-11
12.059       	6.751379e-11
12.0614      	6.749676e-11
12.0639      	6.747965e-11
12.0663      	6.746249e-11
12.0688      	6.744514e-11
12.0713      	6.742830e-11
12.0737      	6.741114e-11
12.0762      	6.739360e-11
12.0786      	6.737628e-11
12.0811      	6.735916e-11
12.0835      	6.734270e-11
12.086       	6.732496e-11
12.0885      	6.730700e-11
12.0909      	6.728886e-11
12.0934      	6.727128e-11
12.0958      	6.725346e-11
12.0983      	6.723522e-11
12.1007      	6.722234e-11
