# Region type : patch bottom
# Faces  :   1000
# Area   :   6.239977e-01
# Time       	sumDirection(phi)
0.0119048    	0.000000e+00
0.014505     	1.932314e-06
0.017133     	1.873281e-07
0.019747     	8.346242e-08
0.022368     	3.978259e-08
0.024989     	3.422628e-08
0.02761      	2.725482e-08
0.030231     	2.449999e-08
0.032852     	2.205099e-08
0.0354659    	2.076469e-08
0.0380798    	1.968151e-08
0.0406867    	1.903140e-08
0.0432935    	1.850820e-08
0.0459003    	1.815781e-08
0.0485071    	1.787192e-08
0.051114     	1.765619e-08
0.0537137    	1.748899e-08
0.0563133    	1.736721e-08
0.058913     	1.726649e-08
0.0615127    	1.717585e-08
0.0641124    	1.711384e-08
0.0667121    	1.706864e-08
0.0693118    	1.704054e-08
0.0719115    	1.701972e-08
0.0745039    	1.699279e-08
0.0770963    	1.697452e-08
0.0796887    	1.695098e-08
0.0822812    	1.694364e-08
0.0848663    	1.693543e-08
0.0874514    	1.693357e-08
0.0900365    	1.692585e-08
0.0926143    	1.692232e-08
0.0951921    	1.692120e-08
0.0977699    	1.692476e-08
0.10034      	1.692845e-08
0.102911     	1.693531e-08
0.105481     	1.693750e-08
0.108052     	1.693835e-08
0.110615     	1.692688e-08
0.113178     	1.692170e-08
0.115741     	1.690638e-08
0.118304     	1.690187e-08
0.120867     	1.689059e-08
0.12343      	1.688587e-08
0.125993     	1.687892e-08
0.128549     	1.688667e-08
0.131104     	1.689427e-08
0.13366      	1.689056e-08
0.136216     	1.688093e-08
0.138771     	1.685819e-08
0.141319     	1.684726e-08
0.143867     	1.683919e-08
0.146415     	1.682366e-08
0.148963     	1.681607e-08
0.151504     	1.680462e-08
0.154044     	1.679816e-08
0.156584     	1.678505e-08
0.159117     	1.677904e-08
0.16165      	1.677384e-08
0.164183     	1.677003e-08
0.166708     	1.676476e-08
0.169233     	1.676384e-08
0.171758     	1.675810e-08
0.174276     	1.676122e-08
0.176793     	1.676591e-08
0.17931      	1.677152e-08
0.18182      	1.677921e-08
0.18433      	1.678776e-08
0.18684      	1.679427e-08
0.189342     	1.680635e-08
0.191844     	1.680943e-08
0.194346     	1.680891e-08
0.19684      	1.681519e-08
0.199334     	1.682513e-08
0.201829     	1.683390e-08
0.204323     	1.684567e-08
0.206809     	1.685475e-08
0.209296     	1.686638e-08
0.211782     	1.688051e-08
0.214269     	1.689150e-08
0.216748     	1.690486e-08
0.219226     	1.692323e-08
0.221705     	1.693875e-08
0.224184     	1.694870e-08
0.226654     	1.696437e-08
0.229125     	1.697926e-08
0.231596     	1.699564e-08
0.234067     	1.700985e-08
0.236529     	1.702521e-08
0.238992     	1.704071e-08
0.241455     	1.705755e-08
0.243918     	1.707100e-08
0.246381     	1.708317e-08
0.248835     	1.709797e-08
0.25129      	1.711940e-08
0.253745     	1.713714e-08
0.2562       	1.714729e-08
0.258655     	1.716813e-08
0.261109     	1.718759e-08
0.263556     	1.720517e-08
0.266003     	1.722438e-08
0.268449     	1.724110e-08
0.270896     	1.725896e-08
0.273343     	1.727301e-08
0.275789     	1.729180e-08
0.278236     	1.730961e-08
0.280674     	1.732604e-08
0.283113     	1.734091e-08
0.285551     	1.735682e-08
0.287989     	1.737108e-08
0.290428     	1.738685e-08
0.292866     	1.739983e-08
0.295305     	1.741526e-08
0.297743     	1.742984e-08
0.300181     	1.744628e-08
0.30262      	1.746141e-08
0.30505      	1.747654e-08
0.30748      	1.749493e-08
0.30991      	1.750788e-08
0.312339     	1.752448e-08
0.314769     	1.754171e-08
0.317199     	1.755963e-08
0.319629     	1.757857e-08
0.322059     	1.759262e-08
0.324489     	1.760731e-08
0.326919     	1.761952e-08
0.329349     	1.763753e-08
0.331779     	1.765371e-08
0.334208     	1.767357e-08
0.336638     	1.769154e-08
0.339068     	1.771298e-08
0.341498     	1.773044e-08
0.343928     	1.774973e-08
0.346358     	1.776544e-08
0.348788     	1.778457e-08
0.351218     	1.780055e-08
0.353648     	1.782661e-08
0.356078     	1.783784e-08
0.358507     	1.785936e-08
0.360937     	1.787513e-08
0.363367     	1.789569e-08
0.365797     	1.791023e-08
0.368227     	1.793078e-08
0.370657     	1.794631e-08
0.373087     	1.796557e-08
0.375517     	1.797948e-08
0.377947     	1.799355e-08
0.380377     	1.800763e-08
0.382806     	1.803054e-08
0.385236     	1.804284e-08
0.387666     	1.806332e-08
0.390096     	1.807763e-08
0.392526     	1.810044e-08
0.394966     	1.811838e-08
0.397405     	1.813872e-08
0.399845     	1.816009e-08
0.402285     	1.818643e-08
0.404724     	1.820535e-08
0.407164     	1.823072e-08
0.409604     	1.825427e-08
0.412043     	1.827966e-08
0.414483     	1.830100e-08
0.416923     	1.832744e-08
0.419362     	1.834958e-08
0.421802     	1.837690e-08
0.424242     	1.839705e-08
0.426681     	1.842467e-08
0.42911      	1.845756e-08
0.43154      	1.850183e-08
0.433959     	1.853771e-08
0.436378     	1.857580e-08
0.438786     	1.861319e-08
0.441195     	1.866650e-08
0.443593     	1.871542e-08
0.445992     	1.875111e-08
0.44839      	1.877956e-08
0.450778     	1.882157e-08
0.453166     	1.886112e-08
0.455543     	1.890487e-08
0.457921     	1.895191e-08
0.460288     	1.900560e-08
0.462655     	1.904523e-08
0.465012     	1.909406e-08
0.467369     	1.912294e-08
0.469715     	1.916651e-08
0.472062     	1.921781e-08
0.474408     	1.928813e-08
0.476744     	1.936296e-08
0.47908      	1.941914e-08
0.481405     	1.945135e-08
0.483731     	1.947800e-08
0.486046     	1.949879e-08
0.488351     	1.954927e-08
0.490655     	1.959844e-08
0.49295      	1.965474e-08
0.495234     	1.970332e-08
0.497508     	1.975065e-08
0.499781     	1.979749e-08
0.502045     	1.983195e-08
0.504298     	1.989213e-08
0.506541     	1.995506e-08
0.508784     	1.998999e-08
0.511017     	2.002958e-08
0.513239     	2.006061e-08
0.515462     	2.007868e-08
0.517675     	2.011160e-08
0.519887     	2.016233e-08
0.522089     	2.021016e-08
0.524282     	2.026279e-08
0.526474     	2.031657e-08
0.528656     	2.035976e-08
0.530838     	2.040824e-08
0.53301      	2.045649e-08
0.535182     	2.050986e-08
0.537354     	2.057444e-08
0.539516     	2.065745e-08
0.541678     	2.083260e-08
0.54384      	2.103802e-08
0.545992     	2.124482e-08
0.548143     	2.133481e-08
0.550295     	2.129800e-08
0.552437     	2.135171e-08
0.554578     	2.146884e-08
0.556709     	2.158647e-08
0.55884      	2.160134e-08
0.560972     	2.156925e-08
0.563093     	2.163226e-08
0.565213     	2.174861e-08
0.567334     	2.190507e-08
0.569455     	2.200293e-08
0.571576     	2.204407e-08
0.573687     	2.214916e-08
0.575797     	2.227108e-08
0.577908     	2.223743e-08
0.580018     	2.208420e-08
0.582128     	2.195571e-08
0.584239     	2.191382e-08
0.586349     	2.189505e-08
0.588471     	2.193037e-08
0.590592     	2.195942e-08
0.592713     	2.199467e-08
0.594835     	2.205499e-08
0.596956     	2.213471e-08
0.599077     	2.215638e-08
0.601198     	2.217882e-08
0.60332      	2.215484e-08
0.605441     	2.214635e-08
0.607562     	2.213821e-08
0.609684     	2.213633e-08
0.611805     	2.220726e-08
0.613926     	2.233906e-08
0.616047     	2.235989e-08
0.618169     	2.229576e-08
0.62029      	2.224842e-08
0.622411     	2.225078e-08
0.624533     	2.226419e-08
0.626654     	2.228107e-08
0.628787     	2.227824e-08
0.630921     	2.230823e-08
0.633054     	2.234178e-08
0.635187     	2.243062e-08
0.637321     	2.252959e-08
0.639467     	2.265390e-08
0.641613     	2.273918e-08
0.643759     	2.276912e-08
0.645905     	2.275417e-08
0.648051     	2.289259e-08
0.650197     	2.305504e-08
0.652343     	2.311999e-08
0.654489     	2.320848e-08
0.656635     	2.333775e-08
0.658781     	2.343756e-08
0.660927     	2.329216e-08
0.663073     	2.307505e-08
0.665219     	2.295114e-08
0.667365     	2.291371e-08
0.669511     	2.294105e-08
0.671657     	2.295371e-08
0.673803     	2.292822e-08
0.675964     	2.287498e-08
0.678124     	2.281098e-08
0.680284     	2.279601e-08
0.682444     	2.285379e-08
0.684605     	2.284715e-08
0.686765     	2.273642e-08
0.688925     	2.258018e-08
0.691085     	2.253957e-08
0.693246     	2.264003e-08
0.695406     	2.277457e-08
0.697566     	2.277795e-08
0.699726     	2.267637e-08
0.701887     	2.255515e-08
0.704047     	2.246912e-08
0.706207     	2.243819e-08
0.708367     	2.253292e-08
0.710527     	2.274039e-08
0.712688     	2.285545e-08
0.714848     	2.274481e-08
0.717008     	2.255210e-08
0.719168     	2.234604e-08
0.721345     	2.222729e-08
0.723522     	2.212280e-08
0.725699     	2.206082e-08
0.727876     	2.198901e-08
0.730053     	2.195378e-08
0.73223      	2.191927e-08
0.734407     	2.190899e-08
0.736584     	2.189451e-08
0.738761     	2.194222e-08
0.740938     	2.201434e-08
0.743115     	2.209332e-08
0.745292     	2.206925e-08
0.747469     	2.210959e-08
0.749646     	2.227799e-08
0.751823     	2.253028e-08
0.75402      	2.260065e-08
0.756216     	2.239130e-08
0.758412     	2.211196e-08
0.760608     	2.188946e-08
0.762805     	2.171969e-08
0.764981     	2.161433e-08
0.767157     	2.155086e-08
0.769333     	2.151314e-08
0.771509     	2.147843e-08
0.773685     	2.146577e-08
0.775861     	2.144079e-08
0.778016     	2.145994e-08
0.780172     	2.145427e-08
0.782327     	2.154306e-08
0.784482     	2.165107e-08
0.786637     	2.179229e-08
0.788792     	2.189051e-08
0.790947     	2.203784e-08
0.793103     	2.221963e-08
0.795258     	2.225048e-08
0.797413     	2.211970e-08
0.799545     	2.195506e-08
0.801678     	2.176807e-08
0.80381      	2.163881e-08
0.805943     	2.152582e-08
0.808075     	2.144393e-08
0.810208     	2.136448e-08
0.81234      	2.133543e-08
0.814473     	2.130418e-08
0.816605     	2.129238e-08
0.818738     	2.124523e-08
0.82087      	2.121591e-08
0.823003     	2.121761e-08
0.825135     	2.129525e-08
0.827268     	2.145279e-08
0.8294       	2.171108e-08
0.831533     	2.199713e-08
0.833665     	2.211895e-08
0.835798     	2.203114e-08
0.83793      	2.178568e-08
0.840063     	2.153282e-08
0.842195     	2.138371e-08
0.844328     	2.126916e-08
0.84646      	2.121098e-08
0.848593     	2.114074e-08
0.850725     	2.109635e-08
0.852858     	2.105782e-08
0.855022     	2.103123e-08
0.857186     	2.098980e-08
0.859349     	2.097682e-08
0.861513     	2.096087e-08
0.863677     	2.096217e-08
0.865841     	2.094373e-08
0.868005     	2.102427e-08
0.870169     	2.121600e-08
0.872333     	2.152448e-08
0.874496     	2.183424e-08
0.87666      	2.196444e-08
0.878824     	2.182003e-08
0.880988     	2.159256e-08
0.883152     	2.136009e-08
0.885316     	2.123549e-08
0.88748      	2.112596e-08
0.889643     	2.107603e-08
0.891807     	2.101788e-08
0.893971     	2.098362e-08
0.896135     	2.093785e-08
0.898299     	2.091914e-08
0.900463     	2.087453e-08
0.902627     	2.085894e-08
0.90479      	2.082846e-08
0.906954     	2.084277e-08
0.909118     	2.088702e-08
0.911282     	2.104954e-08
0.913446     	2.129691e-08
0.91561      	2.163652e-08
0.917774     	2.188318e-08
0.919937     	2.194606e-08
0.922101     	2.178268e-08
0.924265     	2.160407e-08
0.926429     	2.142474e-08
0.928593     	2.136200e-08
0.930757     	2.129904e-08
0.93292      	2.133063e-08
0.935084     	2.128857e-08
0.937248     	2.119296e-08
0.939412     	2.107121e-08
0.941576     	2.103493e-08
0.94374      	2.098277e-08
0.945904     	2.097622e-08
0.948067     	2.096166e-08
0.950231     	2.102771e-08
0.952395     	2.113005e-08
0.954559     	2.132818e-08
0.956723     	2.156260e-08
0.958887     	2.180864e-08
0.961051     	2.191482e-08
0.963214     	2.188004e-08
0.965378     	2.175228e-08
0.967542     	2.173121e-08
0.969706     	2.165832e-08
0.97187      	2.160672e-08
0.974034     	2.158511e-08
0.976198     	2.158442e-08
0.978361     	2.149444e-08
0.980525     	2.144750e-08
0.982689     	2.141275e-08
0.984853     	2.142827e-08
0.987017     	2.138973e-08
0.989181     	2.141869e-08
0.991345     	2.144865e-08
0.993508     	2.152888e-08
0.995672     	2.155926e-08
0.997836     	2.166885e-08
1            	2.184144e-08
1.00228      	2.211351e-08
1.00457      	2.228453e-08
1.00685      	2.233955e-08
1.00914      	2.225118e-08
1.01143      	2.219538e-08
1.01372      	2.205058e-08
1.01602      	2.194212e-08
1.01831      	2.183671e-08
1.02061      	2.180574e-08
1.02291      	2.174226e-08
1.02521      	2.174357e-08
1.02751      	2.170815e-08
1.0298       	2.172351e-08
1.03209      	2.169043e-08
1.03437      	2.170505e-08
1.03666      	2.166586e-08
1.03893      	2.166828e-08
1.04121      	2.167895e-08
1.04348      	2.176198e-08
1.04574      	2.184386e-08
1.04801      	2.201749e-08
1.05027      	2.217546e-08
1.05252      	2.229925e-08
1.05478      	2.233698e-08
1.05703      	2.239698e-08
1.05928      	2.233912e-08
1.06152      	2.230677e-08
1.06377      	2.226510e-08
1.06601      	2.223934e-08
1.06825      	2.214392e-08
1.07048      	2.210748e-08
1.07272      	2.204080e-08
1.07495      	2.202266e-08
1.07718      	2.198523e-08
1.0794       	2.200145e-08
1.08162      	2.198520e-08
1.08384      	2.201207e-08
1.08606      	2.199454e-08
1.08827      	2.202570e-08
1.09049      	2.203821e-08
1.0927       	2.212109e-08
1.09491      	2.220327e-08
1.09711      	2.232131e-08
1.09932      	2.238297e-08
1.10152      	2.240651e-08
1.10373      	2.239064e-08
1.10593      	2.238398e-08
1.10813      	2.232851e-08
1.11033      	2.232629e-08
1.11253      	2.229861e-08
1.11473      	2.231161e-08
1.11692      	2.233137e-08
1.11912      	2.239469e-08
1.12132      	2.245378e-08
1.12351      	2.252937e-08
1.12571      	2.253748e-08
1.1279       	2.254364e-08
1.13009      	2.252991e-08
1.13228      	2.254640e-08
1.13447      	2.254207e-08
1.13665      	2.257957e-08
1.13884      	2.258219e-08
1.14103      	2.261972e-08
1.14321      	2.262792e-08
1.14539      	2.267773e-08
1.14757      	2.274926e-08
1.14975      	2.283333e-08
1.15193      	2.288585e-08
1.15412      	2.298078e-08
1.1563       	2.307588e-08
1.15848      	2.325749e-08
1.16066      	2.329074e-08
1.16284      	2.329386e-08
1.16501      	2.319788e-08
1.16719      	2.313988e-08
1.16936      	2.317439e-08
1.17152      	2.330977e-08
1.17369      	2.333242e-08
1.17586      	2.330360e-08
1.17803      	2.314613e-08
1.1802       	2.308112e-08
1.18237      	2.301353e-08
1.18453      	2.300713e-08
1.18669      	2.299507e-08
1.18886      	2.301215e-08
1.19101      	2.298247e-08
1.19317      	2.298321e-08
1.19533      	2.300738e-08
1.19749      	2.310220e-08
1.19964      	2.315812e-08
1.2018       	2.317776e-08
1.20396      	2.312000e-08
1.20612      	2.310007e-08
1.20827      	2.310296e-08
1.21042      	2.322138e-08
1.21258      	2.332996e-08
1.21473      	2.340439e-08
1.21687      	2.336191e-08
1.21902      	2.333790e-08
1.22116      	2.331778e-08
1.22331      	2.328459e-08
1.22546      	2.324626e-08
1.2276       	2.324302e-08
1.22975      	2.324204e-08
1.23189      	2.327299e-08
1.23403      	2.333652e-08
1.23617      	2.343076e-08
1.23831      	2.353023e-08
1.24045      	2.359598e-08
1.24259      	2.359733e-08
1.24472      	2.357331e-08
1.24685      	2.350933e-08
1.24898      	2.347991e-08
1.2511       	2.345738e-08
1.25322      	2.345973e-08
1.25533      	2.346538e-08
1.25745      	2.354648e-08
1.25956      	2.363727e-08
1.26167      	2.371783e-08
1.26378      	2.369718e-08
1.26588      	2.365274e-08
1.26799      	2.362581e-08
1.2701       	2.363300e-08
1.27221      	2.365412e-08
1.27432      	2.375589e-08
1.27643      	2.385012e-08
1.27854      	2.389005e-08
1.28065      	2.382766e-08
1.28275      	2.378887e-08
1.28485      	2.378929e-08
1.28696      	2.379936e-08
1.28906      	2.378840e-08
1.29116      	2.379835e-08
1.29327      	2.379649e-08
1.29537      	2.385405e-08
1.29747      	2.395187e-08
1.29958      	2.401460e-08
1.30168      	2.396341e-08
1.30378      	2.392317e-08
1.30589      	2.389235e-08
1.30799      	2.386898e-08
1.31009      	2.385016e-08
1.3122       	2.384076e-08
1.3143       	2.383329e-08
1.3164       	2.383170e-08
1.31851      	2.383557e-08
1.32061      	2.384600e-08
1.32271      	2.385586e-08
1.32482      	2.386883e-08
1.32692      	2.388983e-08
1.32902      	2.390817e-08
1.33113      	2.396594e-08
1.33324      	2.406424e-08
1.33535      	2.420874e-08
1.33746      	2.435837e-08
1.33957      	2.446692e-08
1.34169      	2.446830e-08
1.34381      	2.443904e-08
1.34592      	2.442696e-08
1.34804      	2.436942e-08
1.35016      	2.431521e-08
1.35227      	2.428739e-08
1.35439      	2.431606e-08
1.35651      	2.432252e-08
1.35864      	2.430808e-08
1.36076      	2.430622e-08
1.36289      	2.423543e-08
1.36502      	2.416384e-08
1.36716      	2.411659e-08
1.3693       	2.407791e-08
1.37144      	2.404949e-08
1.37357      	2.402267e-08
1.37571      	2.400756e-08
1.37786      	2.400184e-08
1.38         	2.398296e-08
1.38215      	2.396055e-08
1.3843       	2.394097e-08
1.38645      	2.392743e-08
1.38861      	2.391117e-08
1.39076      	2.390038e-08
1.39291      	2.387815e-08
1.39507      	2.385193e-08
1.39722      	2.382143e-08
1.39937      	2.374899e-08
1.40153      	2.369632e-08
1.40369      	2.366439e-08
1.40584      	2.362942e-08
1.408        	2.359902e-08
1.41015      	2.356639e-08
1.4123       	2.353976e-08
1.41446      	2.353823e-08
1.41662      	2.354298e-08
1.41878      	2.356416e-08
1.42094      	2.349492e-08
1.4231       	2.347508e-08
1.42526      	2.348320e-08
1.42743      	2.350170e-08
1.4296       	2.341779e-08
1.43177      	2.338379e-08
1.43394      	2.339924e-08
1.43612      	2.342530e-08
1.43831      	2.344837e-08
1.44049      	2.342156e-08
1.44269      	2.332080e-08
1.44488      	2.325513e-08
1.44708      	2.325046e-08
1.44929      	2.330472e-08
1.4515       	2.338076e-08
1.45371      	2.346129e-08
1.45592      	2.342462e-08
1.45814      	2.333617e-08
1.46036      	2.321328e-08
1.46259      	2.319008e-08
1.46482      	2.323653e-08
1.46705      	2.329377e-08
1.46929      	2.339032e-08
1.47153      	2.346918e-08
1.47378      	2.358899e-08
1.47603      	2.373756e-08
1.47829      	2.395368e-08
1.48054      	2.424730e-08
1.48281      	2.439699e-08
1.48508      	2.430327e-08
1.48736      	2.397629e-08
1.48965      	2.368717e-08
1.49194      	2.348885e-08
1.49424      	2.327428e-08
1.49653      	2.313688e-08
1.49884      	2.303602e-08
1.50115      	2.298253e-08
1.50347      	2.297816e-08
1.50579      	2.302103e-08
1.50813      	2.321021e-08
1.51046      	2.344134e-08
1.5128       	2.358635e-08
1.51515      	2.362131e-08
1.51751      	2.350949e-08
1.51987      	2.329313e-08
1.52224      	2.313956e-08
1.52461      	2.301436e-08
1.52699      	2.280527e-08
1.52936      	2.257320e-08
1.53172      	2.244577e-08
1.53409      	2.234149e-08
1.53645      	2.225406e-08
1.53882      	2.214172e-08
1.54118      	2.199240e-08
1.54355      	2.188860e-08
1.54591      	2.178180e-08
1.54828      	2.168147e-08
1.55064      	2.160830e-08
1.55301      	2.154626e-08
1.55537      	2.149930e-08
1.55774      	2.146559e-08
1.5601       	2.143339e-08
1.56247      	2.138117e-08
1.56483      	2.133043e-08
1.5672       	2.128818e-08
1.56956      	2.122383e-08
1.57193      	2.117873e-08
1.5743       	2.113302e-08
1.57668      	2.112731e-08
1.57906      	2.112589e-08
1.58144      	2.108170e-08
1.58382      	2.104161e-08
1.5862       	2.102636e-08
1.58857      	2.097635e-08
1.59095      	2.093371e-08
1.59333      	2.090769e-08
1.59571      	2.088546e-08
1.59809      	2.088752e-08
1.60046      	2.089621e-08
1.60284      	2.092832e-08
1.60524      	2.098501e-08
1.60763      	2.107687e-08
1.61002      	2.120882e-08
1.61241      	2.132927e-08
1.61481      	2.132831e-08
1.6172       	2.124244e-08
1.61959      	2.114293e-08
1.62198      	2.110779e-08
1.62439      	2.108819e-08
1.6268       	2.106779e-08
1.62921      	2.105809e-08
1.63161      	2.105547e-08
1.63402      	2.104453e-08
1.63643      	2.106194e-08
1.63884      	2.111257e-08
1.64124      	2.113686e-08
1.64365      	2.119279e-08
1.64606      	2.126920e-08
1.64847      	2.138565e-08
1.65089      	2.148315e-08
1.65332      	2.164633e-08
1.65574      	2.175382e-08
1.65817      	2.173497e-08
1.66059      	2.156472e-08
1.66301      	2.137999e-08
1.66544      	2.131837e-08
1.66786      	2.135878e-08
1.67029      	2.156107e-08
1.67271      	2.187028e-08
1.67514      	2.208449e-08
1.67758      	2.213258e-08
1.68002      	2.193378e-08
1.68246      	2.162948e-08
1.68491      	2.139215e-08
1.68735      	2.118110e-08
1.68979      	2.103758e-08
1.69223      	2.092364e-08
1.69468      	2.083059e-08
1.69712      	2.077033e-08
1.69956      	2.079073e-08
1.70202      	2.082766e-08
1.70449      	2.087436e-08
1.70695      	2.094524e-08
1.70941      	2.107038e-08
1.71187      	2.119761e-08
1.71434      	2.132602e-08
1.7168       	2.134212e-08
1.71926      	2.131634e-08
1.72173      	2.122004e-08
1.72419      	2.107845e-08
1.72665      	2.095127e-08
1.72911      	2.086743e-08
1.73158      	2.081445e-08
1.73404      	2.079223e-08
1.7365       	2.077967e-08
1.73896      	2.078994e-08
1.74143      	2.081120e-08
1.74389      	2.082201e-08
1.74635      	2.084913e-08
1.74881      	2.088668e-08
1.75128      	2.090466e-08
1.75374      	2.092016e-08
1.7562       	2.093390e-08
1.75866      	2.095075e-08
1.76113      	2.097799e-08
1.76359      	2.100863e-08
1.76605      	2.103711e-08
1.76851      	2.106796e-08
1.77098      	2.108640e-08
1.77344      	2.110484e-08
1.7759       	2.113517e-08
1.77837      	2.115556e-08
1.78083      	2.116560e-08
1.78329      	2.119774e-08
1.78575      	2.123550e-08
1.78822      	2.127124e-08
1.79068      	2.131011e-08
1.79314      	2.134808e-08
1.7956       	2.139118e-08
1.79807      	2.143444e-08
1.80053      	2.146807e-08
1.80299      	2.150482e-08
1.80545      	2.153983e-08
1.80792      	2.157858e-08
1.81038      	2.161996e-08
1.81284      	2.166354e-08
1.8153       	2.171020e-08
1.81777      	2.175637e-08
1.82023      	2.178312e-08
1.82269      	2.180566e-08
1.82515      	2.183936e-08
1.82762      	2.184171e-08
1.83008      	2.184909e-08
1.83254      	2.187480e-08
1.83501      	2.188795e-08
1.83747      	2.193750e-08
1.83993      	2.204214e-08
1.84239      	2.218155e-08
1.84486      	2.231295e-08
1.84732      	2.240111e-08
1.84978      	2.243614e-08
1.85224      	2.247351e-08
1.85471      	2.248313e-08
1.85717      	2.246146e-08
1.85963      	2.244934e-08
1.86209      	2.246142e-08
1.86456      	2.249383e-08
1.86702      	2.253799e-08
1.86948      	2.259634e-08
1.87194      	2.267089e-08
1.87441      	2.276144e-08
1.87687      	2.285976e-08
1.87933      	2.292597e-08
1.88179      	2.297489e-08
1.88426      	2.299038e-08
1.88672      	2.301006e-08
1.88918      	2.299930e-08
1.89165      	2.300003e-08
1.89411      	2.304113e-08
1.89657      	2.311575e-08
1.89903      	2.323958e-08
1.9015       	2.339438e-08
1.9039       	2.350652e-08
1.9063       	2.355420e-08
1.9087       	2.346148e-08
1.91111      	2.343573e-08
1.91351      	2.345134e-08
1.91591      	2.344065e-08
1.91831      	2.342281e-08
1.92072      	2.339874e-08
1.92312      	2.342691e-08
1.92552      	2.349371e-08
1.92792      	2.359749e-08
1.93033      	2.369073e-08
1.93273      	2.377115e-08
1.93513      	2.376938e-08
1.93745      	2.374014e-08
1.93976      	2.375328e-08
1.94208      	2.375389e-08
1.9444       	2.372393e-08
1.94671      	2.363134e-08
1.94903      	2.365127e-08
1.95135      	2.380351e-08
1.95367      	2.396829e-08
1.95598      	2.402825e-08
1.9583       	2.391214e-08
1.96062      	2.384642e-08
1.96293      	2.385232e-08
1.96525      	2.385222e-08
1.96757      	2.384175e-08
1.96988      	2.378471e-08
1.9722       	2.375323e-08
1.97452      	2.370470e-08
1.97683      	2.367331e-08
1.97915      	2.366209e-08
1.98147      	2.366637e-08
1.98378      	2.363785e-08
1.9861       	2.361383e-08
1.98842      	2.360685e-08
1.99073      	2.361669e-08
1.99305      	2.363308e-08
1.99537      	2.367801e-08
1.99768      	2.374871e-08
2            	2.378814e-08
2.00233      	2.384208e-08
2.00466      	2.384781e-08
2.00699      	2.385286e-08
2.00932      	2.385980e-08
2.01166      	2.388270e-08
2.01399      	2.391077e-08
2.01632      	2.393528e-08
2.01865      	2.399193e-08
2.02099      	2.406859e-08
2.02333      	2.412609e-08
2.02566      	2.409513e-08
2.028        	2.408848e-08
2.03034      	2.410709e-08
2.03267      	2.411965e-08
2.03501      	2.415031e-08
2.03735      	2.418477e-08
2.03968      	2.417536e-08
2.04202      	2.413645e-08
2.04436      	2.409418e-08
2.04669      	2.407332e-08
2.04903      	2.405823e-08
2.05137      	2.405133e-08
2.0537       	2.405582e-08
2.05604      	2.407111e-08
2.05838      	2.409040e-08
2.06072      	2.411332e-08
2.06307      	2.413593e-08
2.06541      	2.416706e-08
2.06775      	2.416359e-08
2.07009      	2.417222e-08
2.07243      	2.420225e-08
2.07478      	2.424767e-08
2.07713      	2.427843e-08
2.07947      	2.430545e-08
2.08182      	2.437161e-08
2.08417      	2.447576e-08
2.08652      	2.453483e-08
2.08887      	2.447297e-08
2.09123      	2.440132e-08
2.09358      	2.441001e-08
2.09594      	2.448459e-08
2.09829      	2.455798e-08
2.10064      	2.464089e-08
2.103        	2.461390e-08
2.10536      	2.452832e-08
2.10772      	2.448138e-08
2.11008      	2.443765e-08
2.11244      	2.440965e-08
2.11481      	2.439282e-08
2.11717      	2.438590e-08
2.11955      	2.438513e-08
2.12192      	2.439476e-08
2.12429      	2.441627e-08
2.12667      	2.445585e-08
2.12905      	2.452424e-08
2.13143      	2.461665e-08
2.13381      	2.469994e-08
2.13619      	2.473271e-08
2.13858      	2.473409e-08
2.14096      	2.466114e-08
2.14335      	2.460640e-08
2.14574      	2.458381e-08
2.14814      	2.457384e-08
2.15053      	2.456810e-08
2.15293      	2.457194e-08
2.15533      	2.458602e-08
2.15773      	2.461198e-08
2.16013      	2.463186e-08
2.16254      	2.459944e-08
2.16495      	2.456433e-08
2.16735      	2.455706e-08
2.16977      	2.463909e-08
2.17218      	2.475839e-08
2.17459      	2.491212e-08
2.17702      	2.504700e-08
2.17943      	2.505407e-08
2.18184      	2.493328e-08
2.18426      	2.483711e-08
2.18667      	2.478309e-08
2.18908      	2.474800e-08
2.1915       	2.472539e-08
2.19391      	2.471129e-08
2.19632      	2.468557e-08
2.19874      	2.465846e-08
2.20115      	2.464251e-08
2.20356      	2.465450e-08
2.20598      	2.468920e-08
2.20839      	2.475711e-08
2.2108       	2.484104e-08
2.21322      	2.493755e-08
2.21563      	2.500311e-08
2.21804      	2.495544e-08
2.22046      	2.488804e-08
2.22288      	2.486833e-08
2.2253       	2.486502e-08
2.22772      	2.485326e-08
2.23014      	2.485427e-08
2.23257      	2.485795e-08
2.235        	2.486199e-08
2.23743      	2.487782e-08
2.23986      	2.491232e-08
2.24229      	2.497787e-08
2.24473      	2.508415e-08
2.24716      	2.517487e-08
2.2496       	2.524531e-08
2.25204      	2.522264e-08
2.25448      	2.518323e-08
2.25693      	2.519575e-08
2.25937      	2.522386e-08
2.26182      	2.521762e-08
2.26428      	2.529544e-08
2.26673      	2.538743e-08
2.26918      	2.544844e-08
2.27164      	2.548262e-08
2.2741       	2.563188e-08
2.27656      	2.585184e-08
2.27902      	2.606828e-08
2.28148      	2.605268e-08
2.28395      	2.584403e-08
2.28642      	2.566286e-08
2.28889      	2.567144e-08
2.29136      	2.584387e-08
2.29384      	2.603760e-08
2.29632      	2.619459e-08
2.29879      	2.610361e-08
2.30127      	2.584129e-08
2.30375      	2.567709e-08
2.30623      	2.567010e-08
2.3087       	2.586921e-08
2.31118      	2.604080e-08
2.31366      	2.604342e-08
2.31614      	2.606269e-08
2.31862      	2.597721e-08
2.32109      	2.588022e-08
2.32357      	2.582867e-08
2.32605      	2.578580e-08
2.32853      	2.571276e-08
2.331        	2.564886e-08
2.33348      	2.561973e-08
2.33596      	2.562739e-08
2.33843      	2.564838e-08
2.3409       	2.565817e-08
2.34337      	2.563294e-08
2.34583      	2.563981e-08
2.3483       	2.565917e-08
2.35077      	2.568815e-08
2.35324      	2.573062e-08
2.35571      	2.577926e-08
2.35818      	2.578824e-08
2.36065      	2.578674e-08
2.36313      	2.578772e-08
2.3656       	2.580501e-08
2.36808      	2.583983e-08
2.37056      	2.588070e-08
2.37304      	2.594536e-08
2.37551      	2.605205e-08
2.37799      	2.615167e-08
2.38047      	2.620917e-08
2.38295      	2.620201e-08
2.38543      	2.617803e-08
2.3879       	2.618073e-08
2.39039      	2.617032e-08
2.39288      	2.616392e-08
2.39537      	2.617430e-08
2.39786      	2.619201e-08
2.40036      	2.619045e-08
2.40285      	2.620328e-08
2.40535      	2.621604e-08
2.40786      	2.623898e-08
2.41037      	2.627763e-08
2.41288      	2.634389e-08
2.41538      	2.641347e-08
2.41788      	2.648110e-08
2.42037      	2.649909e-08
2.42287      	2.650114e-08
2.42537      	2.650144e-08
2.42786      	2.650597e-08
2.43035      	2.647039e-08
2.43283      	2.640403e-08
2.43532      	2.636997e-08
2.43781      	2.633631e-08
2.44029      	2.631502e-08
2.44276      	2.631837e-08
2.44524      	2.633035e-08
2.44772      	2.635367e-08
2.45019      	2.637911e-08
2.45267      	2.641304e-08
2.45515      	2.645946e-08
2.45761      	2.654676e-08
2.46008      	2.655960e-08
2.46254      	2.653591e-08
2.46501      	2.651345e-08
2.46747      	2.650443e-08
2.46994      	2.649644e-08
2.4724       	2.646765e-08
2.47487      	2.645047e-08
2.47733      	2.641857e-08
2.4798       	2.640217e-08
2.48227      	2.639739e-08
2.48473      	2.640425e-08
2.4872       	2.637482e-08
2.48966      	2.636093e-08
2.49213      	2.634806e-08
2.49459      	2.634054e-08
2.49706      	2.636866e-08
2.49952      	2.640608e-08
2.50199      	2.646107e-08
2.50445      	2.648319e-08
2.50692      	2.651470e-08
2.50938      	2.658093e-08
2.51185      	2.664493e-08
2.51432      	2.669304e-08
2.51678      	2.673820e-08
2.51926      	2.668791e-08
2.52174      	2.668120e-08
2.52421      	2.667840e-08
2.52669      	2.665060e-08
2.52917      	2.663252e-08
2.53165      	2.661556e-08
2.53413      	2.657411e-08
2.53661      	2.650760e-08
2.53908      	2.646638e-08
2.54156      	2.645296e-08
2.54404      	2.645286e-08
2.54653      	2.643880e-08
2.54902      	2.643695e-08
2.55151      	2.641157e-08
2.55401      	2.636330e-08
2.5565       	2.634363e-08
2.55899      	2.635230e-08
2.56148      	2.637307e-08
2.56397      	2.639429e-08
2.56648      	2.636708e-08
2.56898      	2.634669e-08
2.57149      	2.634487e-08
2.574        	2.635992e-08
2.5765       	2.639848e-08
2.57901      	2.643095e-08
2.58151      	2.641707e-08
2.58402      	2.638944e-08