# Region type : patch top
# Faces  :   1000
# Area   :   6.239977e-01
# Time       	sum(phiSub)
0.0119048    	2.243335e-08
0.0139894    	7.793656e-09
0.0160608    	6.711855e-10
0.0181323    	-1.418938e-09
0.0202081    	-1.841745e-09
0.0222839    	-1.572512e-09
0.0243597    	-1.489437e-09
0.0264356    	-1.371080e-09
0.0285114    	-1.303639e-09
0.0305828    	-1.241528e-09
0.0326542    	-1.195715e-09
0.0347212    	-1.157596e-09
0.0367882    	-1.126974e-09
0.0388551    	-1.101965e-09
0.0409221    	-1.080996e-09
0.0429891    	-1.062978e-09
0.0450561    	-1.047715e-09
0.0471186    	-1.033919e-09
0.0491811    	-1.026386e-09
0.0512436    	-1.017370e-09
0.0533061    	-1.008770e-09
0.0553687    	-1.001109e-09
0.0574312    	-9.939939e-10
0.0594937    	-9.889876e-10
0.0615517    	-9.841186e-10
0.0636097    	-9.798129e-10
0.0656677    	-9.758777e-10
0.0677212    	-9.723390e-10
0.0697746    	-9.688622e-10
0.0718281    	-9.657710e-10
0.0738771    	-9.630763e-10
0.075926     	-9.610164e-10
0.0779704    	-9.589936e-10
0.0800148    	-9.571745e-10
0.0820592    	-9.556078e-10
0.0840991    	-9.542889e-10
0.086139     	-9.533862e-10
0.0881788    	-9.524904e-10
0.0902187    	-9.516561e-10
0.092254     	-9.511745e-10
0.0942893    	-9.507174e-10
0.0963246    	-9.505050e-10
0.0983599    	-9.504094e-10
0.100395     	-9.504774e-10
0.102426     	-9.503875e-10
0.104457     	-9.506265e-10
0.106487     	-9.510543e-10
0.108518     	-9.516442e-10
0.110544     	-9.521276e-10
0.11257      	-9.527340e-10
0.114596     	-9.534738e-10
0.116618     	-9.543734e-10
0.118639     	-9.551174e-10
0.120656     	-9.560277e-10
0.122673     	-9.569471e-10
0.124685     	-9.580631e-10
0.126697     	-9.590923e-10
0.128705     	-9.603566e-10
0.130713     	-9.615493e-10
0.132716     	-9.625581e-10
0.134719     	-9.638829e-10
0.136717     	-9.652166e-10
0.138715     	-9.662929e-10
0.140709     	-9.674948e-10
0.142703     	-9.688779e-10
0.144692     	-9.701133e-10
0.146681     	-9.713563e-10
0.148665     	-9.725175e-10
0.15065      	-9.741738e-10
0.15263      	-9.758765e-10
0.154609     	-9.773590e-10
0.156585     	-9.787895e-10
0.15856      	-9.802524e-10
0.160535     	-9.814614e-10
0.162506     	-9.827154e-10
0.164476     	-9.840013e-10
0.166442     	-9.853028e-10
0.168408     	-9.865297e-10
0.170369     	-9.878451e-10
0.172331     	-9.889719e-10
0.174287     	-9.901589e-10
0.176244     	-9.913243e-10
0.178196     	-9.926340e-10
0.180148     	-9.938462e-10
0.182095     	-9.951304e-10
0.184043     	-9.958798e-10
0.185986     	-9.970936e-10
0.187928     	-9.985366e-10
0.189866     	-9.996732e-10
0.191805     	-1.000885e-09
0.193743     	-1.002137e-09
0.195676     	-1.003065e-09
0.19761      	-1.004432e-09
0.199543     	-1.005517e-09
0.201472     	-1.006981e-09
0.203401     	-1.008250e-09
0.20533      	-1.009355e-09
0.207254     	-1.010618e-09
0.209178     	-1.011793e-09
0.211102     	-1.012862e-09
0.213021     	-1.014018e-09
0.214941     	-1.015368e-09
0.21686      	-1.017064e-09
0.21878      	-1.018605e-09
0.220695     	-1.019812e-09
0.222609     	-1.021193e-09
0.224524     	-1.022506e-09
0.226434     	-1.023717e-09
0.228344     	-1.025376e-09
0.230254     	-1.026733e-09
0.23216      	-1.027918e-09
0.234065     	-1.029209e-09
0.23597      	-1.030842e-09
0.237875     	-1.032290e-09
0.239776     	-1.033381e-09
0.241677     	-1.034530e-09
0.243577     	-1.035964e-09
0.245478     	-1.037391e-09
0.247373     	-1.038757e-09
0.249269     	-1.040216e-09
0.251165     	-1.041807e-09
0.253061     	-1.043019e-09
0.254957     	-1.044551e-09
0.256848     	-1.045999e-09
0.258739     	-1.047560e-09
0.26063      	-1.049100e-09
0.262521     	-1.050459e-09
0.264412     	-1.051951e-09
0.266298     	-1.053352e-09
0.268184     	-1.054883e-09
0.27007      	-1.056378e-09
0.271956     	-1.058018e-09
0.273842     	-1.059608e-09
0.275728     	-1.060936e-09
0.277614     	-1.062278e-09
0.279496     	-1.064293e-09
0.281377     	-1.065883e-09
0.283258     	-1.067733e-09
0.285139     	-1.069481e-09
0.28702      	-1.071271e-09
0.288902     	-1.073521e-09
0.290783     	-1.075438e-09
0.292664     	-1.077894e-09
0.294545     	-1.079222e-09
0.296426     	-1.081214e-09
0.298308     	-1.082487e-09
0.300189     	-1.084336e-09
0.30207      	-1.086232e-09
0.303951     	-1.088351e-09
0.305833     	-1.090391e-09
0.307714     	-1.092450e-09
0.3096       	-1.093846e-09
0.311486     	-1.095900e-09
0.313373     	-1.097311e-09
0.315259     	-1.099501e-09
0.317145     	-1.101164e-09
0.319032     	-1.103546e-09
0.320918     	-1.105976e-09
0.322804     	-1.108355e-09
0.324691     	-1.110917e-09
0.326577     	-1.112877e-09
0.328463     	-1.115258e-09
0.33035      	-1.117500e-09
0.332236     	-1.119589e-09
0.334117     	-1.122329e-09
0.335998     	-1.124758e-09
0.337879     	-1.127274e-09
0.33976      	-1.129240e-09
0.341641     	-1.131900e-09
0.343522     	-1.133488e-09
0.345403     	-1.135711e-09
0.347284     	-1.137758e-09
0.349165     	-1.139815e-09
0.351046     	-1.142080e-09
0.352927     	-1.143814e-09
0.354808     	-1.145542e-09
0.356689     	-1.148005e-09
0.358565     	-1.150066e-09
0.360441     	-1.152193e-09
0.362311     	-1.154162e-09
0.364181     	-1.156298e-09
0.366051     	-1.157267e-09
0.367921     	-1.158888e-09
0.369785     	-1.159660e-09
0.37165      	-1.161738e-09
0.373514     	-1.163548e-09
0.375379     	-1.164411e-09
0.377238     	-1.165433e-09
0.379091     	-1.167184e-09
0.380939     	-1.168404e-09
0.382782     	-1.169908e-09
0.384624     	-1.169612e-09
0.386461     	-1.169889e-09
0.388293     	-1.170086e-09
0.390119     	-1.170081e-09
0.391939     	-1.170331e-09
0.393754     	-1.170525e-09
0.395564     	-1.170501e-09
0.397368     	-1.170822e-09
0.399162     	-1.170554e-09
0.400945     	-1.170085e-09
0.402722     	-1.170779e-09
0.404489     	-1.170892e-09
0.406251     	-1.170456e-09
0.408003     	-1.170451e-09
0.409749     	-1.169536e-09
0.411485     	-1.168787e-09
0.413216     	-1.168514e-09
0.414937     	-1.168249e-09
0.416653     	-1.167555e-09
0.418363     	-1.166461e-09
0.420064     	-1.166675e-09
0.42176      	-1.166266e-09
0.42345      	-1.166083e-09
0.425136     	-1.165180e-09
0.426812     	-1.165011e-09
0.428483     	-1.164079e-09
0.43015      	-1.163012e-09
0.431811     	-1.163840e-09
0.433467     	-1.163185e-09
0.435119     	-1.162966e-09
0.436766     	-1.162164e-09
0.438408     	-1.161598e-09
0.440045     	-1.160869e-09
0.441683     	-1.160704e-09
0.443315     	-1.160432e-09
0.444943     	-1.161530e-09
0.446571     	-1.162108e-09
0.448194     	-1.161156e-09
0.449817     	-1.159959e-09
0.45144      	-1.159721e-09
0.453058     	-1.159438e-09
0.454676     	-1.158493e-09
0.456294     	-1.157684e-09
0.457912     	-1.157641e-09
0.459526     	-1.158401e-09
0.461139     	-1.158582e-09
0.462747     	-1.158769e-09
0.464356     	-1.159021e-09
0.465965     	-1.158482e-09
0.467568     	-1.158304e-09
0.469172     	-1.157438e-09
0.470776     	-1.158148e-09
0.472379     	-1.160262e-09
0.473983     	-1.160627e-09
0.475592     	-1.160975e-09
0.4772       	-1.161544e-09
0.478809     	-1.160628e-09
0.480423     	-1.162489e-09
0.482036     	-1.163309e-09
0.48365      	-1.163355e-09
0.485263     	-1.163792e-09
0.486877     	-1.164270e-09
0.488491     	-1.165094e-09
0.490104     	-1.163503e-09
0.491723     	-1.165102e-09
0.493342     	-1.166571e-09
0.494955     	-1.167313e-09
0.496569     	-1.166452e-09
0.498182     	-1.166599e-09
0.499796     	-1.167259e-09
0.501409     	-1.164526e-09
0.503023     	-1.162784e-09
0.504636     	-1.164498e-09
0.50625      	-1.163900e-09
0.507864     	-1.163393e-09
0.509482     	-1.162011e-09
0.511101     	-1.160102e-09
0.51272      	-1.158211e-09
0.514339     	-1.156097e-09
0.515958     	-1.154172e-09
0.517577     	-1.152867e-09
0.519196     	-1.150160e-09
0.520815     	-1.146658e-09
0.522433     	-1.144582e-09
0.524052     	-1.141960e-09
0.525671     	-1.137842e-09
0.527285     	-1.134487e-09
0.528898     	-1.130605e-09
0.530511     	-1.126603e-09
0.53213      	-1.119396e-09
0.533749     	-1.119212e-09
0.535368     	-1.114752e-09
0.536987     	-1.110201e-09
0.538606     	-1.104770e-09
0.540231     	-1.099831e-09
0.541855     	-1.093894e-09
0.54348      	-1.084096e-09
0.54511      	-1.078080e-09
0.546741     	-1.070679e-09
0.548371     	-1.062010e-09
0.550007     	-1.056052e-09
0.551644     	-1.046147e-09
0.55328      	-1.036390e-09
0.554916     	-1.026807e-09
0.556559     	-1.018442e-09
0.558201     	-1.009025e-09
0.559844     	-1.000078e-09
0.561486     	-9.896044e-10
0.563128     	-9.787402e-10
0.564771     	-9.681531e-10
0.566413     	-9.569106e-10
0.568055     	-9.454531e-10
0.569698     	-9.344003e-10
0.57134      	-9.209813e-10
0.572983     	-9.082247e-10
0.574625     	-8.944308e-10
0.576274     	-8.822216e-10
0.577922     	-8.700482e-10
0.579571     	-8.549092e-10
0.58122      	-8.412635e-10
0.582869     	-8.290807e-10
0.584524     	-8.146579e-10
0.586179     	-8.015318e-10
0.587834     	-7.867631e-10
0.589496     	-7.718296e-10
0.591158     	-7.570711e-10
0.59282      	-7.409003e-10
0.594482     	-7.260406e-10
0.596144     	-7.109051e-10
0.597813     	-6.957116e-10
0.599482     	-6.807326e-10
0.601151     	-6.650856e-10
0.60282      	-6.497866e-10
0.604488     	-6.322201e-10
0.606157     	-6.140310e-10
0.607826     	-5.988068e-10
0.609495     	-5.830516e-10
0.611164     	-5.680583e-10
0.612833     	-5.535032e-10
0.614501     	-5.362910e-10
0.616177     	-5.169655e-10
0.617853     	-5.007918e-10
0.61953      	-4.832462e-10
0.621206     	-4.672213e-10
0.622882     	-4.505426e-10
0.624558     	-4.326446e-10
0.626234     	-4.156811e-10
0.627918     	-3.999108e-10
0.629594     	-3.822615e-10
0.63127      	-3.687682e-10
0.632946     	-3.523142e-10
0.634614     	-3.378646e-10
0.636283     	-3.180375e-10
0.637943     	-3.006762e-10
0.639604     	-2.833032e-10
0.641265     	-2.679491e-10
0.642918     	-2.531494e-10
0.644571     	-2.382889e-10
0.646224     	-2.191632e-10
0.647878     	-2.031359e-10
0.649523     	-1.876500e-10
0.651168     	-1.744176e-10
0.652814     	-1.589006e-10
0.654459     	-1.458585e-10
0.656105     	-1.314216e-10
0.65775      	-1.170336e-10
0.659396     	-1.014293e-10
0.661041     	-8.661980e-11
0.662686     	-7.191051e-11
0.664332     	-5.778369e-11
0.665977     	-4.112387e-11
0.667623     	-2.305535e-11
0.669268     	-5.684158e-12
0.670914     	9.256202e-12
0.672559     	1.377477e-11
0.674204     	1.990751e-11
0.675858     	2.439932e-11
0.677512     	3.105110e-11
0.679166     	4.212709e-11
0.68082      	5.512237e-11
0.682482     	6.571696e-11
0.684144     	7.594204e-11
0.685807     	8.614513e-11
0.687469     	9.597689e-11
0.689141     	1.049923e-10
0.690812     	1.179770e-10
0.692483     	1.304305e-10
0.694154     	1.415376e-10
0.695835     	1.521835e-10
0.697515     	1.540549e-10
0.699196     	1.556867e-10
0.700876     	1.593937e-10
0.702557     	1.660963e-10
0.704237     	1.717881e-10
0.705918     	1.786088e-10
0.707598     	1.860908e-10
0.709279     	1.916695e-10
0.710969     	1.971119e-10
0.712659     	2.016569e-10
0.714349     	2.085099e-10
0.71604      	2.133912e-10
0.71773      	2.177732e-10
0.71943      	2.218554e-10
0.721131     	2.246330e-10
0.722831     	2.291480e-10
0.724532     	2.339115e-10
0.726232     	2.392935e-10
0.727943     	2.435113e-10
0.729654     	2.476482e-10
0.731365     	2.493819e-10
0.733076     	2.517193e-10
0.734787     	2.534438e-10
0.736509     	2.583475e-10
0.738231     	2.615433e-10
0.739954     	2.621806e-10
0.741676     	2.651356e-10
0.743398     	2.660872e-10
0.74512      	2.679459e-10
0.746842     	2.709995e-10
0.748576     	2.746830e-10
0.75031      	2.777204e-10
0.752044     	2.791312e-10
0.753778     	2.801895e-10
0.755512     	2.795072e-10
0.757246     	2.798509e-10
0.758992     	2.786754e-10
0.760739     	2.798994e-10
0.762485     	2.804507e-10
0.764232     	2.812384e-10
0.765978     	2.824129e-10
0.767725     	2.844836e-10
0.769471     	2.850946e-10
0.771217     	2.862854e-10
0.772964     	2.882178e-10
0.774724     	2.893153e-10
0.776484     	2.895621e-10
0.778244     	2.892515e-10
0.780004     	2.890240e-10
0.781764     	2.850384e-10
0.783538     	2.821443e-10
0.785312     	2.837579e-10
0.787087     	2.858572e-10
0.788861     	2.862584e-10
0.790635     	2.853819e-10
0.792409     	2.858035e-10
0.794184     	2.869353e-10
0.795958     	2.868988e-10
0.797748     	2.895867e-10
0.799538     	2.910652e-10
0.801328     	2.904156e-10
0.803117     	2.860799e-10
0.804907     	2.794862e-10
0.806697     	2.780705e-10
0.808487     	2.808337e-10
0.810277     	2.820024e-10
0.812067     	2.849642e-10
0.813856     	2.869266e-10
0.815664     	2.861912e-10
0.817471     	2.851905e-10
0.819278     	2.853046e-10
0.821085     	2.860059e-10
0.822893     	2.854742e-10
0.8247       	2.843810e-10
0.826507     	2.851881e-10
0.828314     	2.853448e-10
0.830121     	2.849117e-10
0.831929     	2.832098e-10
0.833736     	2.826327e-10
0.835524     	2.823472e-10
0.837311     	2.823648e-10
0.839099     	2.841962e-10
0.840887     	2.877452e-10
0.842655     	2.917483e-10
0.844423     	2.952768e-10
0.846191     	3.013859e-10
0.847959     	3.063847e-10
0.849727     	3.055884e-10
0.851474     	3.030006e-10
0.853221     	2.994730e-10
0.854969     	2.976846e-10
0.856716     	2.968220e-10
0.858463     	2.960820e-10
0.860211     	2.956684e-10
0.861958     	2.947432e-10
0.863684     	2.934364e-10
0.865409     	2.928358e-10
0.867135     	2.928147e-10
0.86886      	2.941346e-10
0.870586     	2.928830e-10
0.872311     	2.921498e-10
0.874037     	2.919572e-10
0.875762     	2.925951e-10
0.877464     	2.936717e-10
0.879166     	2.950476e-10
0.880868     	2.958896e-10
0.88257      	2.967739e-10
0.884272     	2.972879e-10
0.885974     	2.982660e-10
0.887676     	2.991029e-10
0.889377     	2.992169e-10
0.891079     	3.021830e-10
0.892781     	3.043259e-10
0.894483     	3.065029e-10
0.896185     	3.087700e-10
0.897887     	3.121778e-10
0.899589     	3.141460e-10
0.901291     	3.155932e-10
0.902993     	3.170293e-10
0.904694     	3.194270e-10
0.906366     	3.213686e-10
0.908038     	3.230633e-10
0.90971      	3.254429e-10
0.911383     	3.274404e-10
0.913055     	3.288754e-10
0.914727     	3.322920e-10
0.916399     	3.354709e-10
0.918071     	3.394504e-10
0.919743     	3.433063e-10
0.921415     	3.465115e-10
0.923087     	3.500551e-10
0.924759     	3.532326e-10
0.926431     	3.580579e-10
0.928103     	3.624616e-10
0.929775     	3.674265e-10
0.931447     	3.732499e-10
0.933119     	3.778780e-10
0.934791     	3.818606e-10
0.936463     	3.877302e-10
0.938135     	3.903909e-10
0.939807     	3.933500e-10
0.941479     	3.961977e-10
0.943151     	3.990705e-10
0.944823     	4.043382e-10
0.946495     	4.083759e-10
0.948167     	4.115573e-10
0.949839     	4.156109e-10
0.951511     	4.213148e-10
0.953183     	4.268213e-10
0.954855     	4.326646e-10
0.956527     	4.382922e-10
0.958199     	4.448874e-10
0.959871     	4.503753e-10
0.961543     	4.555674e-10
0.963215     	4.624886e-10
0.964887     	4.714143e-10
0.966559     	4.835830e-10
0.968231     	4.994283e-10
0.969903     	5.187984e-10
0.971576     	5.423967e-10
0.973248     	5.594214e-10
0.97492      	5.618352e-10
0.976592     	5.590363e-10
0.978264     	5.511237e-10
0.979936     	5.398795e-10
0.981608     	5.350650e-10
0.98328      	5.353159e-10
0.9848       	5.371967e-10
0.98632      	5.408117e-10
0.98784      	5.441500e-10
0.98936      	5.494732e-10
0.99088      	5.552206e-10
0.9924       	5.595535e-10
0.99392      	5.628543e-10
0.99544      	5.664463e-10
0.99696      	5.699656e-10
0.99848      	5.733414e-10
1            	5.774560e-10
1.00167      	5.820115e-10
1.00333      	5.851164e-10
1.005        	5.895253e-10
1.00666      	5.930198e-10
1.00832      	5.952096e-10
1.00997      	5.967485e-10
1.01163      	5.961078e-10
1.01329      	6.004022e-10
1.01494      	6.069463e-10
1.01659      	6.107386e-10
1.01824      	6.124017e-10
1.01989      	6.141282e-10
1.02153      	6.162170e-10
1.02318      	6.181450e-10
1.02482      	6.198818e-10
1.02646      	6.210106e-10
1.02811      	6.213102e-10
1.02975      	6.220126e-10
1.03139      	6.227139e-10
1.03303      	6.221281e-10
1.03468      	6.240869e-10
1.03632      	6.251245e-10
1.03796      	6.240050e-10
1.0396       	6.228437e-10
1.04124      	6.223785e-10
1.04288      	6.213744e-10
1.04452      	6.208483e-10
1.04616      	6.182919e-10
1.0478       	6.159366e-10
1.04944      	6.134162e-10
1.05108      	6.107359e-10
1.05273      	6.079846e-10
1.05437      	6.050180e-10
1.05602      	6.020572e-10
1.05766      	5.998288e-10
1.0593       	5.959065e-10
1.06093      	5.929126e-10
1.06257      	5.904130e-10
1.06422      	5.873040e-10
1.06586      	5.834807e-10
1.0675       	5.798959e-10
1.06915      	5.755295e-10
1.07079      	5.724645e-10
1.07244      	5.697854e-10
1.07409      	5.685795e-10
1.07573      	5.696133e-10
1.07738      	5.743815e-10
1.07903      	5.883741e-10
1.08068      	6.168750e-10
1.08232      	6.662827e-10
1.08397      	7.329275e-10
1.08562      	7.894281e-10
1.08726      	7.881836e-10
1.0889       	6.957284e-10
1.09055      	6.364780e-10
1.09219      	6.061326e-10
1.09384      	5.866723e-10
1.09549      	5.703030e-10
1.09714      	5.587129e-10
1.09878      	5.500515e-10
1.10043      	5.432801e-10
1.10208      	5.386554e-10
1.10372      	5.370847e-10
1.10537      	5.331133e-10
1.10701      	5.364385e-10
1.10865      	5.483869e-10
1.1103       	5.571771e-10
1.11194      	5.455075e-10
1.11358      	5.167914e-10
1.11523      	5.284963e-10
1.11687      	5.846065e-10
1.11851      	6.734933e-10
1.12015      	7.737436e-10
1.1218       	8.176863e-10
1.12344      	7.389455e-10
1.12508      	6.874169e-10
1.12672      	6.421830e-10
1.12836      	6.012079e-10
1.13001      	5.667323e-10
1.13165      	5.408476e-10
1.1333       	5.216769e-10
1.13494      	5.050652e-10
1.13658      	4.891281e-10
1.13822      	4.769146e-10
1.13986      	4.658117e-10
1.14151      	4.559774e-10
1.14315      	4.483778e-10
1.14479      	4.412841e-10
1.14643      	4.338875e-10
1.14808      	4.211573e-10
1.14972      	4.070704e-10
1.15137      	3.892110e-10
1.15301      	3.701823e-10
1.15466      	3.543657e-10
1.1563       	3.410348e-10
1.15795      	3.327736e-10
1.15959      	3.282653e-10
1.16124      	3.259790e-10
1.16288      	3.225302e-10
1.16453      	3.229023e-10
1.16618      	3.234767e-10
1.16782      	3.230824e-10
1.16947      	3.234597e-10
1.17112      	3.241898e-10
1.17277      	3.233036e-10
1.17442      	3.220562e-10
1.17607      	3.203499e-10
1.17772      	3.193871e-10
1.17938      	3.174376e-10
1.18104      	3.158581e-10
1.1827       	3.147800e-10
1.18436      	3.125821e-10
1.18602      	3.122703e-10
1.18768      	3.112357e-10
1.18934      	3.103789e-10
1.19101      	3.095199e-10
1.19267      	3.088329e-10
1.19435      	3.093602e-10
1.19602      	3.091958e-10
1.1977       	3.085453e-10
1.19938      	3.082154e-10
1.20107      	3.084933e-10
1.20276      	3.104876e-10
1.20446      	3.127006e-10
1.20616      	3.135944e-10
1.20787      	3.144803e-10
1.20959      	3.159117e-10
1.21131      	3.154303e-10
1.21304      	3.156418e-10
1.21478      	3.158787e-10
1.21652      	3.163857e-10
1.21827      	3.175044e-10
1.22002      	3.190014e-10
1.22178      	3.214285e-10
1.22355      	3.234122e-10
1.22533      	3.265106e-10
1.22711      	3.298466e-10
1.22889      	3.338174e-10
1.23069      	3.399336e-10
1.23249      	3.464774e-10
1.23429      	3.521809e-10
1.2361       	3.447218e-10
1.23792      	3.294969e-10
1.23974      	3.288285e-10
1.24156      	3.267754e-10
1.24338      	3.268358e-10
1.24521      	3.307416e-10
1.24704      	3.371958e-10
1.24886      	3.408749e-10
1.25068      	3.447993e-10
1.25251      	3.474807e-10
1.25433      	3.509730e-10
1.25615      	3.544490e-10
1.25798      	3.576251e-10
1.25981      	3.615950e-10
1.26164      	3.656392e-10
1.26346      	3.693230e-10
1.26529      	3.724038e-10
1.26711      	3.746158e-10
1.26893      	3.760193e-10
1.27076      	3.665419e-10
1.27258      	3.592835e-10
1.2744       	3.473699e-10
1.27623      	3.288629e-10
1.27805      	3.256727e-10
1.27988      	3.377261e-10
1.28171      	3.469624e-10
1.28355      	3.542835e-10
1.28538      	3.633629e-10
1.28722      	3.668966e-10
1.28906      	3.655632e-10
1.29089      	3.670984e-10
1.29273      	3.698513e-10
1.29457      	3.731250e-10
1.29641      	3.756471e-10
1.29825      	3.776495e-10
1.30009      	3.803057e-10
1.30194      	3.828126e-10
1.30379      	3.863117e-10
1.30564      	3.888788e-10
1.30749      	3.908446e-10
1.30934      	3.915636e-10
1.31119      	3.887061e-10
1.31305      	3.895244e-10
1.31491      	3.952140e-10
1.31677      	4.086727e-10
1.31863      	4.178883e-10
1.32049      	4.231937e-10
1.32235      	4.271603e-10
1.32422      	4.317857e-10
1.32608      	4.356888e-10
1.32794      	4.378793e-10
1.32981      	4.406369e-10
1.33168      	4.447346e-10
1.33354      	4.479989e-10
1.33542      	4.521221e-10
1.33729      	4.573701e-10
1.33917      	4.613615e-10
1.34104      	4.642770e-10
1.34293      	4.674763e-10
1.34481      	4.712290e-10
1.34669      	4.755565e-10
1.34857      	4.804176e-10
1.35046      	4.852766e-10
1.35235      	4.888631e-10
1.35424      	4.925918e-10
1.35613      	4.960908e-10
1.35802      	4.995212e-10
1.35991      	5.036008e-10
1.36181      	5.077610e-10
1.3637       	5.115313e-10
1.3656       	5.150290e-10
1.36749      	5.187946e-10
1.36938      	5.215269e-10
1.37128      	5.249832e-10
1.37317      	5.278230e-10
1.37506      	5.305014e-10
1.37696      	5.329639e-10
1.37885      	5.353919e-10
1.38075      	5.376591e-10
1.38265      	5.409562e-10
1.38455      	5.439757e-10
1.38645      	5.473350e-10
1.38835      	5.501144e-10
1.39025      	5.520759e-10
1.39215      	5.544584e-10
1.39405      	5.572073e-10
1.39595      	5.599229e-10
1.39785      	5.626948e-10
1.39976      	5.643387e-10
1.40166      	5.671175e-10
1.40357      	5.679636e-10
1.40548      	5.700652e-10
1.40738      	5.734274e-10
1.40929      	5.762254e-10
1.41119      	5.805696e-10
1.4131       	5.824858e-10
1.41501      	5.808647e-10
1.41692      	5.790866e-10
1.41883      	5.787936e-10
1.42074      	5.817655e-10
1.42266      	5.843874e-10
1.42457      	5.861876e-10
1.42648      	5.866024e-10
1.42839      	5.881911e-10
1.4303       	5.886560e-10
1.43221      	5.894940e-10
1.43413      	5.894182e-10
1.43603      	5.899552e-10
1.43794      	5.902409e-10
1.43984      	5.902157e-10
1.44173      	5.904504e-10
1.44363      	5.906648e-10
1.44552      	5.905292e-10
1.44741      	5.905273e-10
1.44929      	5.903115e-10
1.45118      	5.886953e-10
1.45306      	5.883652e-10
1.45494      	5.880250e-10
1.45682      	5.871472e-10
1.4587       	5.865607e-10
1.46058      	5.861784e-10
1.46245      	5.852469e-10
1.46432      	5.851241e-10
1.46619      	5.842491e-10
1.46807      	5.835355e-10
1.46994      	5.830160e-10
1.47181      	5.826071e-10
1.47369      	5.819098e-10
1.47556      	5.819740e-10
1.47743      	5.818846e-10
1.47931      	5.824484e-10
1.48118      	5.839500e-10
1.48305      	5.855693e-10
1.48492      	5.841419e-10
1.4868       	5.808993e-10
1.48867      	5.783189e-10
1.49054      	5.754636e-10
1.49242      	5.733281e-10
1.49429      	5.716703e-10
1.49616      	5.700483e-10
1.49804      	5.681073e-10
1.49992      	5.668288e-10
1.5018       	5.658706e-10
1.50368      	5.653658e-10
1.50556      	5.648463e-10
1.50744      	5.636973e-10
1.50932      	5.622458e-10
1.51121      	5.601808e-10
1.5131       	5.584104e-10
1.51498      	5.568867e-10
1.51687      	5.551633e-10
1.51876      	5.534598e-10
1.52065      	5.555436e-10
1.52253      	5.553115e-10
1.52443      	5.540068e-10
1.52632      	5.535628e-10
1.52822      	5.530245e-10
1.53011      	5.519403e-10
1.53201      	5.507024e-10
1.5339       	5.494335e-10
1.5358       	5.498213e-10
1.53769      	5.486468e-10
1.53959      	5.489418e-10
1.54148      	5.485544e-10
1.54337      	5.481018e-10
1.54527      	5.476570e-10
1.54716      	5.473068e-10
1.54906      	5.472160e-10
1.55095      	5.469644e-10
1.55285      	5.467588e-10
1.55474      	5.469347e-10
1.55665      	5.470764e-10
1.55855      	5.465837e-10
1.56045      	5.464228e-10
1.56235      	5.467740e-10
1.56426      	5.454284e-10
1.56616      	5.458010e-10
1.56805      	5.468695e-10
1.56995      	5.475032e-10
1.57184      	5.469179e-10
1.57374      	5.469892e-10
1.57562      	5.473373e-10
1.57751      	5.473354e-10
1.57939      	5.477467e-10
1.58126      	5.483002e-10
1.58313      	5.486854e-10
1.58499      	5.486473e-10
1.58685      	5.491572e-10
1.5887       	5.491797e-10
1.59055      	5.492321e-10
1.5924       	5.495597e-10
1.59424      	5.500030e-10
1.59608      	5.501244e-10
1.59791      	5.496353e-10
1.59975      	5.511342e-10
1.60158      	5.519581e-10
1.60341      	5.528615e-10
1.60523      	5.528226e-10
1.60705      	5.523869e-10
1.60887      	5.530502e-10
1.61069      	5.539348e-10
1.61251      	5.537377e-10
1.61433      	5.552960e-10
1.61615      	5.548276e-10
1.61797      	5.555659e-10
1.61979      	5.554215e-10
1.6216       	5.560477e-10
1.62341      	5.570558e-10
1.62522      	5.573410e-10
1.62703      	5.580695e-10
1.62884      	5.591188e-10
1.63065      	5.606010e-10
1.63246      	5.615216e-10
1.63427      	5.621844e-10
1.63608      	5.627772e-10
1.63789      	5.637126e-10
1.6397       	5.646704e-10
1.64151      	5.650896e-10
1.64332      	5.660102e-10
1.64513      	5.677872e-10
1.64693      	5.683270e-10
1.64873      	5.691910e-10
1.65054      	5.704788e-10
1.65235      	5.717151e-10
1.65416      	5.731534e-10
1.65597      	5.753463e-10
1.65778      	5.756603e-10
1.65959      	5.754592e-10
1.6614       	5.767800e-10
1.66321      	5.782370e-10
1.66502      	5.793797e-10
1.66684      	5.808658e-10
1.66865      	5.821545e-10
1.67047      	5.834198e-10
1.67229      	5.852437e-10
1.67411      	5.861290e-10
1.67593      	5.864497e-10
1.67776      	5.872822e-10
1.67959      	5.884263e-10
1.68142      	5.902862e-10
1.68325      	5.918823e-10
1.68508      	5.934036e-10
1.68691      	5.936187e-10
1.68874      	5.952724e-10
1.69058      	5.961770e-10
1.69241      	5.974657e-10
1.69424      	5.983303e-10
1.69608      	6.011897e-10
1.69792      	6.024554e-10
1.69976      	6.043761e-10
1.70161      	6.058448e-10
1.70346      	6.071394e-10
1.70531      	6.077433e-10
1.70717      	6.095568e-10
1.70902      	6.115644e-10
1.71087      	6.132581e-10
1.71273      	6.148256e-10
1.71458      	6.162507e-10
1.71644      	6.177061e-10
1.71831      	6.188315e-10
1.72018      	6.190092e-10
1.72205      	6.208753e-10
1.72393      	6.223529e-10
1.72581      	6.237520e-10
1.72769      	6.264293e-10
1.72957      	6.282426e-10
1.73146      	6.300120e-10
1.73335      	6.315798e-10
1.73524      	6.327425e-10
1.73713      	6.344650e-10
1.73902      	6.368852e-10
1.74091      	6.401142e-10
1.7428       	6.437606e-10
1.74471      	6.475255e-10
1.74661      	6.524602e-10
1.74852      	6.547986e-10
1.75042      	6.530878e-10
1.75234      	6.504192e-10
1.75426      	6.501676e-10
1.75618      	6.509200e-10
1.7581       	6.523095e-10
1.76002      	6.529383e-10
1.76194      	6.536603e-10
1.76386      	6.544588e-10
1.7658       	6.551524e-10
1.76773      	6.562402e-10
1.76967      	6.569976e-10
1.77161      	6.581143e-10
1.77354      	6.587448e-10
1.77548      	6.598481e-10
1.77741      	6.604984e-10
1.77935      	6.609101e-10
1.78128      	6.620147e-10
1.78322      	6.631148e-10
1.78515      	6.636574e-10
1.78709      	6.642175e-10
1.78902      	6.642135e-10
1.79096      	6.648323e-10
1.7929       	6.657026e-10
1.79483      	6.666957e-10
1.79677      	6.669105e-10
1.7987       	6.663816e-10
1.80064      	6.662805e-10
1.80257      	6.666537e-10
1.80451      	6.669270e-10
1.80644      	6.675964e-10
1.80836      	6.672907e-10
1.81028      	6.669490e-10
1.81219      	6.674667e-10
1.81411      	6.670974e-10
1.81603      	6.661871e-10
1.81794      	6.659935e-10
1.81986      	6.658450e-10
1.82178      	6.654650e-10
1.82369      	6.648447e-10
1.82561      	6.642452e-10
1.82753      	6.634799e-10
1.82944      	6.634099e-10
1.83136      	6.617374e-10
1.83327      	6.597452e-10
1.83519      	6.592152e-10
1.83711      	6.591480e-10
1.83902      	6.594431e-10
1.84094      	6.589456e-10
1.84286      	6.578999e-10
1.84477      	6.568119e-10
1.84669      	6.561005e-10
1.84861      	6.552635e-10
1.85055      	6.544098e-10
1.85249      	6.533326e-10
1.85443      	6.522098e-10
1.85637      	6.516518e-10
1.85831      	6.514626e-10
1.86025      	6.525020e-10
1.86219      	6.534434e-10
1.86413      	6.534572e-10
1.86607      	6.529079e-10
1.86802      	6.495919e-10
1.86996      	6.449087e-10
1.8719       	6.419621e-10
1.87387      	6.392282e-10
1.87584      	6.369654e-10
1.87781      	6.346620e-10
1.87978      	6.327075e-10
1.88175      	6.309422e-10
1.88372      	6.296791e-10
1.88569      	6.277231e-10
1.88766      	6.265436e-10
1.88963      	6.237290e-10
1.89161      	6.219728e-10
1.89358      	6.196865e-10
1.89555      	6.173596e-10
1.89752      	6.150517e-10
1.89949      	6.131499e-10
1.90146      	6.110629e-10
1.90343      	6.093687e-10
1.90544      	6.075002e-10
1.90745      	6.051562e-10
1.90947      	6.023370e-10
1.91148      	6.002356e-10
1.91349      	5.983097e-10
1.9155       	5.965629e-10
1.91751      	5.948479e-10
1.91952      	5.927074e-10
1.92154      	5.908219e-10
1.92355      	5.892731e-10
1.92551      	5.882904e-10
1.92747      	5.854359e-10
1.92943      	5.810223e-10
1.93139      	5.788584e-10
1.93335      	5.781152e-10
1.93531      	5.765295e-10
1.93727      	5.741984e-10
1.93923      	5.721614e-10
1.94119      	5.705881e-10
1.94309      	5.687060e-10
1.94499      	5.662638e-10
1.94688      	5.642042e-10
1.94878      	5.621206e-10
1.95068      	5.602319e-10
1.95257      	5.577850e-10
1.95447      	5.543752e-10
1.95637      	5.531170e-10
1.95826      	5.509573e-10
1.96016      	5.474590e-10
1.96206      	5.444734e-10
1.96396      	5.422565e-10
1.96576      	5.428819e-10
1.96756      	5.431131e-10
1.96936      	5.426987e-10
1.97116      	5.399061e-10
1.97297      	5.371764e-10
1.97477      	5.356926e-10
1.97657      	5.344844e-10
1.97837      	5.318750e-10