/*--------------------------------*- C++ -*----------------------------------*\
| =========                 |                                                 |
| \\      /  F ield         | OpenFOAM: The Open Source CFD Toolbox           |
|  \\    /   O peration     | Version:  5.x                                   |
|   \\  /    A nd           | Web:      www.OpenFOAM.org                      |
|    \\/     M anipulation  |                                                 |
\*---------------------------------------------------------------------------*/
FoamFile
{
    version     2.0;
    format      ascii;
    class       volTensorField;
    location    "300/subsurface";
    object      DSub_CoeffMean;
}
// * * * * * * * * * * * * * * * * * * * * * * * * * * * * * * * * * * * * * //

dimensions      [0 2 -1 0 0 0 0];

internalField   nonuniform List<tensor> 
7200
(
(1.50899e-09 1.73876e-10 1.01506e-10 1.73876e-10 6.07576e-10 1.01506e-10 1.01506e-10 1.01506e-10 6.01506e-10)
(1.41493e-09 1.60061e-10 9.20883e-11 1.60061e-10 5.98037e-10 9.20883e-11 9.20883e-11 9.20883e-11 5.92088e-10)
(1.32767e-09 1.46174e-10 8.33358e-11 1.46174e-10 5.89026e-10 8.33358e-11 8.33358e-11 8.33358e-11 5.83336e-10)
(1.24842e-09 1.32347e-10 7.53713e-11 1.32347e-10 5.80662e-10 7.53713e-11 7.53713e-11 7.53713e-11 5.75371e-10)
(1.17819e-09 1.18661e-10 6.82922e-11 1.18661e-10 5.73023e-10 6.82922e-11 6.82922e-11 6.82922e-11 5.68292e-10)
(1.11799e-09 1.0532e-10 6.2192e-11 1.0532e-10 5.6612e-10 6.2192e-11 6.2192e-11 6.2192e-11 5.62192e-10)
(1.0684e-09 9.25872e-11 5.7139e-11 9.25872e-11 5.60128e-10 5.7139e-11 5.7139e-11 5.7139e-11 5.57139e-10)
(1.02983e-09 8.0545e-11 5.3187e-11 8.0545e-11 5.5523e-10 5.3187e-11 5.3187e-11 5.3187e-11 5.53187e-10)
(1.00266e-09 6.92911e-11 5.03846e-11 6.92911e-11 5.51568e-10 5.03846e-11 5.03846e-11 5.03846e-11 5.50385e-10)
(9.87146e-10 5.89819e-11 4.8768e-11 5.89819e-11 5.49301e-10 4.8768e-11 4.8768e-11 4.8768e-11 5.48768e-10)
(9.83318e-10 4.97414e-11 4.83543e-11 4.97414e-11 5.48579e-10 4.83543e-11 4.83543e-11 4.83543e-11 5.48354e-10)
(9.91136e-10 4.16527e-11 4.91454e-11 4.16527e-11 5.49464e-10 4.91454e-11 4.91454e-11 4.91454e-11 5.49145e-10)
(1.0105e-09 3.47908e-11 5.11286e-11 3.47908e-11 5.51918e-10 5.11286e-11 5.11286e-11 5.11286e-11 5.51129e-10)
(1.04122e-09 2.92166e-11 5.42763e-11 2.92166e-11 5.55823e-10 5.42763e-11 5.42763e-11 5.42763e-11 5.54276e-10)
(1.083e-09 2.49756e-11 5.8548e-11 2.49756e-11 5.61026e-10 5.8548e-11 5.8548e-11 5.8548e-11 5.58548e-10)
(1.13546e-09 2.20746e-11 6.38931e-11 2.20746e-11 5.67367e-10 6.38931e-11 6.38931e-11 6.38931e-11 5.63893e-10)
(1.19809e-09 2.05079e-11 7.02543e-11 2.05079e-11 5.74704e-10 7.02543e-11 7.02543e-11 7.02543e-11 5.70254e-10)
(1.27043e-09 2.02287e-11 7.75726e-11 2.02287e-11 5.82873e-10 7.75726e-11 7.75726e-11 7.75726e-11 5.77573e-10)
(1.35183e-09 2.13769e-11 8.57746e-11 2.13769e-11 5.91692e-10 8.57746e-11 8.57746e-11 8.57746e-11 5.85775e-10)
(1.44127e-09 2.39787e-11 9.47621e-11 2.39787e-11 6.01109e-10 9.47621e-11 9.47621e-11 9.47621e-11 5.94762e-10)
(1.53767e-09 2.80275e-11 1.04427e-10 2.80275e-11 6.11028e-10 1.04427e-10 1.04427e-10 1.04427e-10 6.04427e-10)
(1.63982e-09 3.34548e-11 1.14654e-10 3.34548e-11 6.2137e-10 1.14654e-10 1.14654e-10 1.14654e-10 6.14654e-10)
(1.74655e-09 4.01761e-11 1.25325e-10 4.01761e-11 6.32032e-10 1.25325e-10 1.25325e-10 1.25325e-10 6.25325e-10)
(1.85663e-09 4.81102e-11 1.36321e-10 4.81102e-11 6.42903e-10 1.36321e-10 1.36321e-10 1.36321e-10 6.36321e-10)
(1.96885e-09 5.71696e-11 1.4752e-10 5.71696e-11 6.53874e-10 1.4752e-10 1.4752e-10 1.4752e-10 6.4752e-10)
(2.08194e-09 6.72564e-11 1.58798e-10 6.72564e-11 6.64838e-10 1.58798e-10 1.58798e-10 1.58798e-10 6.58798e-10)
(2.19465e-09 7.82619e-11 1.7003e-10 7.82619e-11 6.75687e-10 1.7003e-10 1.7003e-10 1.7003e-10 6.7003e-10)
(2.30572e-09 9.00685e-11 1.81094e-10 9.00685e-11 6.86312e-10 1.81094e-10 1.81094e-10 1.81094e-10 6.81094e-10)
(2.41395e-09 1.0255e-10 1.91869e-10 1.0255e-10 6.96608e-10 1.91869e-10 1.91869e-10 1.91869e-10 6.91869e-10)
(2.51814e-09 1.15571e-10 2.02237e-10 1.15571e-10 7.06475e-10 2.02237e-10 2.02237e-10 2.02237e-10 7.02237e-10)
(2.61718e-09 1.28991e-10 2.1209e-10 1.28991e-10 7.15809e-10 2.1209e-10 2.1209e-10 2.1209e-10 7.1209e-10)
(2.71e-09 1.42683e-10 2.21319e-10 1.42683e-10 7.24513e-10 2.21319e-10 2.21319e-10 2.21319e-10 7.21319e-10)
(2.79559e-09 1.56502e-10 2.29828e-10 1.56502e-10 7.3251e-10 2.29828e-10 2.29828e-10 2.29828e-10 7.29828e-10)
(2.87304e-09 1.70302e-10 2.37524e-10 1.70302e-10 7.39719e-10 2.37524e-10 2.37524e-10 2.37524e-10 7.37524e-10)
(2.94153e-09 1.83936e-10 2.44327e-10 1.83936e-10 7.46067e-10 2.44327e-10 2.44327e-10 2.44327e-10 7.44327e-10)
(3.00035e-09 1.97272e-10 2.50167e-10 1.97272e-10 7.51489e-10 2.50167e-10 2.50167e-10 2.50167e-10 7.50167e-10)
(3.04886e-09 2.10176e-10 2.54982e-10 2.10176e-10 7.55939e-10 2.54982e-10 2.54982e-10 2.54982e-10 7.54982e-10)
(3.08657e-09 2.22512e-10 2.58722e-10 2.22512e-10 7.59373e-10 2.58722e-10 2.58722e-10 2.58722e-10 7.58722e-10)
(3.11309e-09 2.34157e-10 2.6135e-10 2.34157e-10 7.61761e-10 2.6135e-10 2.6135e-10 2.6135e-10 7.6135e-10)
(3.12816e-09 2.4499e-10 2.6284e-10 2.4499e-10 7.6308e-10 2.6284e-10 2.6284e-10 2.6284e-10 7.6284e-10)
(3.13164e-09 2.5491e-10 2.63178e-10 2.5491e-10 7.63315e-10 2.63178e-10 2.63178e-10 2.63178e-10 7.63178e-10)
(3.1235e-09 2.6383e-10 2.62361e-10 2.6383e-10 7.62468e-10 2.62361e-10 2.62361e-10 2.62361e-10 7.62361e-10)
(3.10383e-09 2.71664e-10 2.60399e-10 2.71664e-10 7.60558e-10 2.60399e-10 2.60399e-10 2.60399e-10 7.60399e-10)
(3.0728e-09 2.78329e-10 2.5731e-10 2.78329e-10 7.57611e-10 2.5731e-10 2.5731e-10 2.5731e-10 7.5731e-10)
(3.03076e-09 2.83755e-10 2.53129e-10 2.83755e-10 7.53661e-10 2.53129e-10 2.53129e-10 2.53129e-10 7.53129e-10)
(2.97798e-09 2.87867e-10 2.47883e-10 2.87867e-10 7.48736e-10 2.47883e-10 2.47883e-10 2.47883e-10 7.47883e-10)
(2.91629e-09 2.90621e-10 2.41753e-10 2.90621e-10 7.42994e-10 2.41753e-10 2.41753e-10 2.41753e-10 7.41753e-10)
(2.84498e-09 2.91775e-10 2.34667e-10 2.91775e-10 7.36353e-10 2.34667e-10 2.34667e-10 2.34667e-10 7.34667e-10)
(2.76461e-09 2.91221e-10 2.26678e-10 2.91221e-10 7.28857e-10 2.26678e-10 2.26678e-10 2.26678e-10 7.26678e-10)
(2.67665e-09 2.88995e-10 2.17936e-10 2.88995e-10 7.2064e-10 2.17936e-10 2.17936e-10 2.17936e-10 7.17936e-10)
(2.58196e-09 2.85113e-10 2.08521e-10 2.85113e-10 7.1177e-10 2.08521e-10 2.08521e-10 2.08521e-10 7.08521e-10)
(2.48151e-09 2.79616e-10 1.98531e-10 2.79616e-10 7.02328e-10 1.98531e-10 1.98531e-10 1.98531e-10 6.98531e-10)
(2.37637e-09 2.72564e-10 1.8807e-10 2.72564e-10 6.92401e-10 1.8807e-10 1.8807e-10 1.8807e-10 6.8807e-10)
(2.26764e-09 2.64033e-10 1.77247e-10 2.64033e-10 6.8208e-10 1.77247e-10 1.77247e-10 1.77247e-10 6.77247e-10)
(2.15649e-09 2.54116e-10 1.66178e-10 2.54116e-10 6.71463e-10 1.66178e-10 1.66178e-10 1.66178e-10 6.66178e-10)
(2.04411e-09 2.42923e-10 1.54978e-10 2.42923e-10 6.60648e-10 1.54978e-10 1.54978e-10 1.54978e-10 6.54978e-10)
(1.93172e-09 2.30581e-10 1.43769e-10 2.30581e-10 6.49737e-10 1.43769e-10 1.43769e-10 1.43769e-10 6.43769e-10)
(1.82055e-09 2.17232e-10 1.32671e-10 2.17232e-10 6.38832e-10 1.32671e-10 1.32671e-10 1.32671e-10 6.32671e-10)
(1.71182e-09 2.03027e-10 1.21805e-10 2.03027e-10 6.28033e-10 1.21805e-10 1.21805e-10 1.21805e-10 6.21805e-10)
(1.60706e-09 1.88161e-10 1.11321e-10 1.88161e-10 6.17467e-10 1.11321e-10 1.11321e-10 1.11321e-10 6.11321e-10)
(1.50473e-09 1.73684e-10 1.01082e-10 1.73684e-10 6.07176e-10 1.01082e-10 1.01082e-10 1.01082e-10 6.01082e-10)
(1.41035e-09 1.59828e-10 9.16332e-11 1.59828e-10 5.97612e-10 9.16332e-11 9.16332e-11 9.16332e-11 5.91633e-10)
(1.32279e-09 1.45895e-10 8.28516e-11 1.45895e-10 5.88581e-10 8.28516e-11 8.28516e-11 8.28516e-11 5.82852e-10)
(1.24329e-09 1.32008e-10 7.48619e-11 1.32008e-10 5.80194e-10 7.48619e-11 7.48619e-11 7.48619e-11 5.74862e-10)
(1.17285e-09 1.18279e-10 6.77617e-11 1.18279e-10 5.72529e-10 6.77617e-11 6.77617e-11 6.77617e-11 5.67762e-10)
(1.11247e-09 1.04898e-10 6.16434e-11 1.04898e-10 5.65604e-10 6.16434e-11 6.16434e-11 6.16434e-11 5.61643e-10)
(1.06274e-09 9.21395e-11 5.6575e-11 9.21395e-11 5.59585e-10 5.6575e-11 5.6575e-11 5.6575e-11 5.56575e-10)
(1.02403e-09 8.00829e-11 5.26084e-11 8.00829e-11 5.54663e-10 5.26084e-11 5.26084e-11 5.26084e-11 5.52608e-10)
(9.96717e-10 6.88213e-11 4.97912e-11 6.88213e-11 5.50986e-10 4.97912e-11 4.97912e-11 4.97912e-11 5.49791e-10)
(9.81047e-10 5.84945e-11 4.81596e-11 5.84945e-11 5.48709e-10 4.81596e-11 4.81596e-11 4.81596e-11 5.4816e-10)
(9.77076e-10 4.9234e-11 4.77318e-11 4.9234e-11 5.47974e-10 4.77318e-11 4.77318e-11 4.77318e-11 5.47732e-10)
(9.84763e-10 4.11197e-11 4.85102e-11 4.11197e-11 5.48849e-10 4.85102e-11 4.85102e-11 4.85102e-11 5.4851e-10)
(1.00402e-09 3.42323e-11 5.04827e-11 3.42323e-11 5.51286e-10 5.04827e-11 5.04827e-11 5.04827e-11 5.50483e-10)
(1.03466e-09 2.86425e-11 5.36213e-11 2.86425e-11 5.55176e-10 5.36213e-11 5.36213e-11 5.36213e-11 5.53621e-10)
(1.07637e-09 2.43888e-11 5.78848e-11 2.43888e-11 5.60366e-10 5.78848e-11 5.78848e-11 5.78848e-11 5.57885e-10)
(1.12875e-09 2.14804e-11 6.3222e-11 2.14804e-11 5.66695e-10 6.3222e-11 6.3222e-11 6.3222e-11 5.63222e-10)
(1.19131e-09 1.99053e-11 6.95756e-11 1.99053e-11 5.74024e-10 6.95756e-11 6.95756e-11 6.95756e-11 5.69576e-10)
(1.26357e-09 1.96152e-11 7.68869e-11 1.96152e-11 5.82186e-10 7.68869e-11 7.68869e-11 7.68869e-11 5.76887e-10)
(1.34491e-09 2.07518e-11 8.50827e-11 2.07518e-11 5.91001e-10 8.50827e-11 8.50827e-11 8.50827e-11 5.85083e-10)
(1.43431e-09 2.33356e-11 9.4066e-11 2.33356e-11 6.00415e-10 9.4066e-11 9.4066e-11 9.4066e-11 5.94066e-10)
(1.53068e-09 2.73719e-11 1.03728e-10 2.73719e-11 6.1033e-10 1.03728e-10 1.03728e-10 1.03728e-10 6.03728e-10)
(1.63282e-09 3.27881e-11 1.13954e-10 3.27881e-11 6.20672e-10 1.13954e-10 1.13954e-10 1.13954e-10 6.13954e-10)
(1.73955e-09 3.94993e-11 1.24626e-10 3.94993e-11 6.31335e-10 1.24626e-10 1.24626e-10 1.24626e-10 6.24626e-10)
(1.84966e-09 4.74242e-11 1.35624e-10 4.74242e-11 6.42209e-10 1.35624e-10 1.35624e-10 1.35624e-10 6.35624e-10)
(1.96191e-09 5.64754e-11 1.46827e-10 5.64754e-11 6.53186e-10 1.46827e-10 1.46827e-10 1.46827e-10 6.46827e-10)
(2.07505e-09 6.65549e-11 1.5811e-10 6.65549e-11 6.64157e-10 1.5811e-10 1.5811e-10 1.5811e-10 6.5811e-10)
(2.18782e-09 7.75543e-11 1.69349e-10 7.75543e-11 6.75014e-10 1.69349e-10 1.69349e-10 1.69349e-10 6.69349e-10)
(2.29898e-09 8.9356e-11 1.80421e-10 8.9356e-11 6.85649e-10 1.80421e-10 1.80421e-10 1.80421e-10 6.80421e-10)
(2.40731e-09 1.01834e-10 1.91206e-10 1.01834e-10 6.95957e-10 1.91206e-10 1.91206e-10 1.91206e-10 6.91206e-10)
(2.51163e-09 1.14856e-10 2.01588e-10 1.14856e-10 7.05834e-10 2.01588e-10 2.01588e-10 2.01588e-10 7.01588e-10)
(2.6108e-09 1.28285e-10 2.11453e-10 1.28285e-10 7.15183e-10 2.11453e-10 2.11453e-10 2.11453e-10 7.11453e-10)
(2.70375e-09 1.41978e-10 2.20697e-10 1.41978e-10 7.23914e-10 2.20697e-10 2.20697e-10 2.20697e-10 7.20697e-10)
(2.78951e-09 1.55782e-10 2.29223e-10 1.55782e-10 7.31938e-10 2.29223e-10 2.29223e-10 2.29223e-10 7.29223e-10)
(2.86719e-09 1.69575e-10 2.36941e-10 1.69575e-10 7.39162e-10 2.36941e-10 2.36941e-10 2.36941e-10 7.36941e-10)
(2.93592e-09 1.83217e-10 2.43769e-10 1.83217e-10 7.45536e-10 2.43769e-10 2.43769e-10 2.43769e-10 7.43769e-10)
(2.995e-09 1.96551e-10 2.49635e-10 1.96551e-10 7.50991e-10 2.49635e-10 2.49635e-10 2.49635e-10 7.49635e-10)
(3.04382e-09 2.09456e-10 2.5448e-10 2.09456e-10 7.55467e-10 2.5448e-10 2.5448e-10 2.5448e-10 7.5448e-10)
(3.08186e-09 2.21804e-10 2.58254e-10 2.21804e-10 7.58931e-10 2.58254e-10 2.58254e-10 2.58254e-10 7.58254e-10)
(3.10873e-09 2.33464e-10 2.60917e-10 2.33464e-10 7.61352e-10 2.60917e-10 2.60917e-10 2.60917e-10 7.60917e-10)
(3.12418e-09 2.44314e-10 2.62444e-10 2.44314e-10 7.62705e-10 2.62444e-10 2.62444e-10 2.62444e-10 7.62444e-10)
(3.12806e-09 2.54258e-10 2.62821e-10 2.54258e-10 7.62972e-10 2.62821e-10 2.62821e-10 2.62821e-10 7.62821e-10)
(3.12032e-09 2.6321e-10 2.62044e-10 2.6321e-10 7.62162e-10 2.62044e-10 2.62044e-10 2.62044e-10 7.62044e-10)
(3.10105e-09 2.71076e-10 2.60122e-10 2.71076e-10 7.60291e-10 2.60122e-10 2.60122e-10 2.60122e-10 7.60122e-10)
(3.07044e-09 2.77771e-10 2.57075e-10 2.77771e-10 7.57384e-10 2.57075e-10 2.57075e-10 2.57075e-10 7.57075e-10)
(3.02881e-09 2.83229e-10 2.52935e-10 2.83229e-10 7.53474e-10 2.52935e-10 2.52935e-10 2.52935e-10 7.52935e-10)
(2.97645e-09 2.87375e-10 2.47731e-10 2.87375e-10 7.48589e-10 2.47731e-10 2.47731e-10 2.47731e-10 7.47731e-10)
(2.91517e-09 2.90164e-10 2.41642e-10 2.90164e-10 7.42887e-10 2.41642e-10 2.41642e-10 2.41642e-10 7.41642e-10)
(2.84428e-09 2.91356e-10 2.34597e-10 2.91356e-10 7.36285e-10 2.34597e-10 2.34597e-10 2.34597e-10 7.34597e-10)
(2.76433e-09 2.90842e-10 2.2665e-10 2.90842e-10 7.28829e-10 2.2665e-10 2.2665e-10 2.2665e-10 7.2665e-10)
(2.67679e-09 2.88659e-10 2.17949e-10 2.88659e-10 7.20652e-10 2.17949e-10 2.17949e-10 2.17949e-10 7.17949e-10)
(2.58251e-09 2.84821e-10 2.08576e-10 2.84821e-10 7.11821e-10 2.08576e-10 2.08576e-10 2.08576e-10 7.08576e-10)
(2.48248e-09 2.79369e-10 1.98627e-10 2.79369e-10 7.02418e-10 1.98627e-10 1.98627e-10 1.98627e-10 6.98627e-10)
(2.37774e-09 2.72364e-10 1.88206e-10 2.72364e-10 6.92529e-10 1.88206e-10 1.88206e-10 1.88206e-10 6.88206e-10)
(2.26942e-09 2.6388e-10 1.77424e-10 2.6388e-10 6.82247e-10 1.77424e-10 1.77424e-10 1.77424e-10 6.77424e-10)
(2.15866e-09 2.54012e-10 1.66393e-10 2.54012e-10 6.71667e-10 1.66393e-10 1.66393e-10 1.66393e-10 6.66393e-10)
(2.04666e-09 2.42869e-10 1.55232e-10 2.42869e-10 6.60887e-10 1.55232e-10 1.55232e-10 1.55232e-10 6.55232e-10)
(1.93464e-09 2.30578e-10 1.4406e-10 2.30578e-10 6.50012e-10 1.4406e-10 1.4406e-10 1.4406e-10 6.4406e-10)
(1.82383e-09 2.17279e-10 1.32997e-10 2.17279e-10 6.3914e-10 1.32997e-10 1.32997e-10 1.32997e-10 6.32997e-10)
(1.71544e-09 2.03123e-10 1.22165e-10 2.03123e-10 6.28373e-10 1.22165e-10 1.22165e-10 1.22165e-10 6.22165e-10)
(1.61101e-09 1.88308e-10 1.11713e-10 1.88308e-10 6.17838e-10 1.11713e-10 1.11713e-10 1.11713e-10 6.11713e-10)
(1.47066e-09 3.12631e-10 1.02394e-10 3.12631e-10 6.55672e-10 1.02394e-10 1.02394e-10 1.02394e-10 6.02394e-10)
(1.37618e-09 2.89251e-10 9.2818e-11 2.89251e-10 6.44817e-10 9.2818e-11 9.2818e-11 9.2818e-11 5.92818e-10)
(1.28712e-09 2.64069e-10 8.36525e-11 2.64069e-10 6.33057e-10 8.36525e-11 8.36525e-11 8.36525e-11 5.83653e-10)
(1.20696e-09 2.37615e-10 7.52205e-11 2.37615e-10 6.2047e-10 7.52205e-11 7.52205e-11 7.52205e-11 5.75221e-10)
(1.13672e-09 2.10185e-10 6.76192e-11 2.10185e-10 6.07094e-10 6.76192e-11 6.76192e-11 6.76192e-11 5.67619e-10)
(1.07725e-09 1.82112e-10 6.09455e-11 1.82112e-10 5.93151e-10 6.09455e-11 6.09455e-11 6.09455e-11 5.60945e-10)
(1.02907e-09 1.53674e-10 5.52976e-11 1.53674e-10 5.79206e-10 5.52976e-11 5.52976e-11 5.52976e-11 5.55298e-10)
(9.92372e-10 1.25033e-10 5.078e-11 1.25033e-10 5.66207e-10 5.078e-11 5.078e-11 5.078e-11 5.5078e-10)
(9.6707e-10 9.63401e-11 4.75039e-11 9.63401e-11 5.55473e-10 4.75039e-11 4.75039e-11 4.75039e-11 5.47504e-10)
(9.52824e-10 6.78887e-11 4.55749e-11 6.78887e-11 5.485e-10 4.55749e-11 4.55749e-11 4.55749e-11 5.45575e-10)
(9.49239e-10 4.01975e-11 4.50682e-11 4.01975e-11 5.4651e-10 4.50682e-11 4.50682e-11 4.50682e-11 5.45068e-10)
(9.56123e-10 1.39487e-11 4.60078e-11 1.39487e-11 5.49963e-10 4.60078e-11 4.60078e-11 4.60078e-11 5.46008e-10)
(9.73613e-10 -1.02707e-11 4.83561e-11 -1.02707e-11 5.58304e-10 4.83561e-11 4.83561e-11 4.83561e-11 5.48356e-10)
(1.00203e-09 -3.21779e-11 5.2027e-11 -3.21779e-11 5.70265e-10 5.2027e-11 5.2027e-11 5.2027e-11 5.52027e-10)
(1.04162e-09 -5.17807e-11 5.69121e-11 -5.17807e-11 5.84409e-10 5.69121e-11 5.69121e-11 5.69121e-11 5.56912e-10)
(1.09241e-09 -6.92161e-11 6.29022e-11 -6.92161e-11 5.9952e-10 6.29022e-11 6.29022e-11 6.29022e-11 5.62902e-10)
(1.15414e-09 -8.45935e-11 6.98975e-11 -8.45935e-11 6.1473e-10 6.98975e-11 6.98975e-11 6.98975e-11 5.69898e-10)
(1.2264e-09 -9.78995e-11 7.78059e-11 -9.78995e-11 6.29463e-10 7.78059e-11 7.78059e-11 7.78059e-11 5.77806e-10)
(1.30854e-09 -1.08957e-10 8.65349e-11 -1.08957e-10 6.4334e-10 8.65349e-11 8.65349e-11 8.65349e-11 5.86535e-10)
(1.39966e-09 -1.17507e-10 9.59883e-11 -1.17507e-10 6.56213e-10 9.59883e-11 9.59883e-11 9.59883e-11 5.95988e-10)
(1.49863e-09 -1.23309e-10 1.06064e-10 -1.23309e-10 6.68078e-10 1.06064e-10 1.06064e-10 1.06064e-10 6.06064e-10)
(1.60419e-09 -1.26187e-10 1.16654e-10 -1.26187e-10 6.79002e-10 1.16654e-10 1.16654e-10 1.16654e-10 6.16654e-10)
(1.71504e-09 -1.26035e-10 1.27647e-10 -1.26035e-10 6.89069e-10 1.27647e-10 1.27647e-10 1.27647e-10 6.27647e-10)
(1.82983e-09 -1.22801e-10 1.38926e-10 -1.22801e-10 6.9835e-10 1.38926e-10 1.38926e-10 1.38926e-10 6.38926e-10)
(1.94719e-09 -1.16477e-10 1.50372e-10 -1.16477e-10 7.06907e-10 1.50372e-10 1.50372e-10 1.50372e-10 6.50372e-10)
(2.06574e-09 -1.07096e-10 1.61867e-10 -1.07096e-10 7.14789e-10 1.61867e-10 1.61867e-10 1.61867e-10 6.61867e-10)
(2.18413e-09 -9.47306e-11 1.73288e-10 -9.47306e-11 7.22039e-10 1.73288e-10 1.73288e-10 1.73288e-10 6.73288e-10)
(2.30098e-09 -7.94955e-11 1.84515e-10 -7.94955e-11 7.2869e-10 1.84515e-10 1.84515e-10 1.84515e-10 6.84515e-10)
(2.41498e-09 -6.15419e-11 1.95432e-10 -6.15419e-11 7.34771e-10 1.95432e-10 1.95432e-10 1.95432e-10 6.95432e-10)
(2.52484e-09 -4.10561e-11 2.05922e-10 -4.10561e-11 7.40302e-10 2.05922e-10 2.05922e-10 2.05922e-10 7.05922e-10)
(2.62935e-09 -1.82528e-11 2.15877e-10 -1.82528e-11 7.45296e-10 2.15877e-10 2.15877e-10 2.15877e-10 7.15877e-10)
(2.72735e-09 6.62922e-12 2.25192e-10 6.62922e-12 7.49766e-10 2.25192e-10 2.25192e-10 2.25192e-10 7.25192e-10)
(2.81776e-09 3.33246e-11 2.33771e-10 3.33246e-11 7.53725e-10 2.33771e-10 2.33771e-10 2.33771e-10 7.33771e-10)
(2.89958e-09 6.15441e-11 2.41524e-10 6.15441e-11 7.57183e-10 2.41524e-10 2.41524e-10 2.41524e-10 7.41524e-10)
(2.97194e-09 9.09814e-11 2.48372e-10 9.09814e-11 7.60149e-10 2.48372e-10 2.48372e-10 2.48372e-10 7.48372e-10)
(3.03405e-09 1.2132e-10 2.54244e-10 1.2132e-10 7.62629e-10 2.54244e-10 2.54244e-10 2.54244e-10 7.54244e-10)
(3.08525e-09 1.52231e-10 2.5908e-10 1.52231e-10 7.64632e-10 2.5908e-10 2.5908e-10 2.5908e-10 7.5908e-10)
(3.12499e-09 1.83379e-10 2.62832e-10 1.83379e-10 7.66167e-10 2.62832e-10 2.62832e-10 2.62832e-10 7.62832e-10)
(3.15285e-09 2.14427e-10 2.65462e-10 2.14427e-10 7.67239e-10 2.65462e-10 2.65462e-10 2.65462e-10 7.65462e-10)
(3.16854e-09 2.45041e-10 2.66945e-10 2.45041e-10 7.67856e-10 2.66945e-10 2.66945e-10 2.66945e-10 7.66945e-10)
(3.17192e-09 2.74895e-10 2.67267e-10 2.74895e-10 7.68023e-10 2.67267e-10 2.67267e-10 2.67267e-10 7.67267e-10)
(3.16293e-09 3.03674e-10 2.66426e-10 3.03674e-10 7.67756e-10 2.66426e-10 2.66426e-10 2.66426e-10 7.66426e-10)
(3.14167e-09 3.31066e-10 2.64431e-10 3.31066e-10 7.67073e-10 2.64431e-10 2.64431e-10 2.64431e-10 7.64431e-10)
(3.10835e-09 3.56767e-10 2.61304e-10 3.56767e-10 7.6599e-10 2.61304e-10 2.61304e-10 2.61304e-10 7.61304e-10)
(3.06333e-09 3.80485e-10 2.57077e-10 3.80485e-10 7.64519e-10 2.57077e-10 2.57077e-10 2.57077e-10 7.57077e-10)
(3.00577e-09 4.01849e-10 2.51665e-10 4.01849e-10 7.62547e-10 2.51665e-10 2.51665e-10 2.51665e-10 7.51665e-10)
(2.94112e-09 4.2009e-10 2.45588e-10 4.2009e-10 7.60349e-10 2.45588e-10 2.45588e-10 2.45588e-10 7.45588e-10)
(2.86511e-09 4.33788e-10 2.38395e-10 4.33788e-10 7.57236e-10 2.38395e-10 2.38395e-10 2.38395e-10 7.38395e-10)
(2.77875e-09 4.43463e-10 2.30183e-10 4.43463e-10 7.53263e-10 2.30183e-10 2.30183e-10 2.30183e-10 7.30183e-10)
(2.68543e-09 4.49748e-10 2.21286e-10 4.49748e-10 7.48713e-10 2.21286e-10 2.21286e-10 2.21286e-10 7.21286e-10)
(2.58537e-09 4.52559e-10 2.11715e-10 4.52559e-10 7.43504e-10 2.11715e-10 2.11715e-10 2.11715e-10 7.11715e-10)
(2.47961e-09 4.51916e-10 2.01567e-10 4.51916e-10 7.37625e-10 2.01567e-10 2.01567e-10 2.01567e-10 7.01567e-10)
(2.36929e-09 4.47873e-10 1.90942e-10 4.47873e-10 7.31069e-10 1.90942e-10 1.90942e-10 1.90942e-10 6.90942e-10)
(2.25561e-09 4.40522e-10 1.79949e-10 4.40522e-10 7.23836e-10 1.79949e-10 1.79949e-10 1.79949e-10 6.79949e-10)
(2.13977e-09 4.29989e-10 1.687e-10 4.29989e-10 7.15927e-10 1.687e-10 1.687e-10 1.687e-10 6.687e-10)
(2.02306e-09 4.16435e-10 1.5731e-10 4.16435e-10 7.07355e-10 1.5731e-10 1.5731e-10 1.5731e-10 6.5731e-10)
(1.90673e-09 4.00057e-10 1.45897e-10 4.00057e-10 6.98134e-10 1.45897e-10 1.45897e-10 1.45897e-10 6.45897e-10)
(1.7921e-09 3.81088e-10 1.34577e-10 3.81088e-10 6.88253e-10 1.34577e-10 1.34577e-10 1.34577e-10 6.34577e-10)
(1.68045e-09 3.59796e-10 1.23469e-10 3.59796e-10 6.7771e-10 1.23469e-10 1.23469e-10 1.23469e-10 6.23469e-10)
(1.57554e-09 3.36744e-10 1.12924e-10 3.36744e-10 6.66622e-10 1.12924e-10 1.12924e-10 1.12924e-10 6.12924e-10)
(1.46628e-09 3.12871e-10 1.01975e-10 3.12871e-10 6.55443e-10 1.01975e-10 1.01975e-10 1.01975e-10 6.01975e-10)
(1.3715e-09 2.89418e-10 9.23706e-11 2.89418e-10 6.44578e-10 9.23706e-11 9.23706e-11 9.23706e-11 5.92371e-10)
(1.28215e-09 2.64151e-10 8.31777e-11 2.64151e-10 6.32808e-10 8.31777e-11 8.31777e-11 8.31777e-11 5.83178e-10)
(1.20173e-09 2.37608e-10 7.4721e-11 2.37608e-10 6.20202e-10 7.4721e-11 7.4721e-11 7.4721e-11 5.74721e-10)
(1.13128e-09 2.10094e-10 6.70978e-11 2.10094e-10 6.06795e-10 6.70978e-11 6.70978e-11 6.70978e-11 5.67098e-10)
(1.07164e-09 1.81949e-10 6.04046e-11 1.81949e-10 5.92814e-10 6.04046e-11 6.04046e-11 6.04046e-11 5.60405e-10)
(1.0233e-09 1.53458e-10 5.47392e-11 1.53458e-10 5.78827e-10 5.47392e-11 5.47392e-11 5.47392e-11 5.54739e-10)
(9.86467e-10 1.24781e-10 5.02053e-11 1.24781e-10 5.65791e-10 5.02053e-11 5.02053e-11 5.02053e-11 5.50205e-10)
(9.61024e-10 9.60576e-11 4.69136e-11 9.60576e-11 5.55025e-10 4.69136e-11 4.69136e-11 4.69136e-11 5.46914e-10)
(9.46636e-10 6.75728e-11 4.49695e-11 6.75728e-11 5.48028e-10 4.49695e-11 4.49695e-11 4.49695e-11 5.44969e-10)
(9.4292e-10 3.98412e-11 4.44484e-11 3.98412e-11 5.46012e-10 4.44484e-11 4.44484e-11 4.44484e-11 5.44448e-10)
(9.49691e-10 1.35472e-11 4.53749e-11 1.35472e-11 5.49433e-10 4.53749e-11 4.53749e-11 4.53749e-11 5.45375e-10)
(9.6709e-10 -1.07138e-11 4.77113e-11 -1.07138e-11 5.57735e-10 4.77113e-11 4.77113e-11 4.77113e-11 5.47711e-10)
(9.95432e-10 -3.26543e-11 5.13716e-11 -3.26543e-11 5.69656e-10 5.13716e-11 5.13716e-11 5.13716e-11 5.51372e-10)
(1.03496e-09 -5.22833e-11 5.62471e-11 -5.22833e-11 5.83763e-10 5.62471e-11 5.62471e-11 5.62471e-11 5.56247e-10)
(1.08567e-09 -6.97385e-11 6.22285e-11 -6.97385e-11 5.98843e-10 6.22285e-11 6.22285e-11 6.22285e-11 5.62228e-10)
(1.14734e-09 -8.51332e-11 6.92157e-11 -8.51332e-11 6.14033e-10 6.92157e-11 6.92157e-11 6.92157e-11 5.69216e-10)
(1.21953e-09 -9.84599e-11 7.71171e-11 -9.84599e-11 6.28758e-10 7.71171e-11 7.71171e-11 7.71171e-11 5.77117e-10)
(1.30161e-09 -1.09545e-10 8.58404e-11 -1.09545e-10 6.42638e-10 8.58404e-11 8.58404e-11 8.58404e-11 5.8584e-10)
(1.39267e-09 -1.1813e-10 9.52896e-11 -1.1813e-10 6.55519e-10 9.52896e-11 9.52896e-11 9.52896e-11 5.9529e-10)
(1.4916e-09 -1.2397e-10 1.05363e-10 -1.2397e-10 6.67395e-10 1.05363e-10 1.05363e-10 1.05363e-10 6.05363e-10)
(1.59714e-09 -1.26886e-10 1.15952e-10 -1.26886e-10 6.78334e-10 1.15952e-10 1.15952e-10 1.15952e-10 6.15952e-10)
(1.70798e-09 -1.2677e-10 1.26946e-10 -1.2677e-10 6.88418e-10 1.26946e-10 1.26946e-10 1.26946e-10 6.26946e-10)
(1.82278e-09 -1.23572e-10 1.38227e-10 -1.23572e-10 6.9772e-10 1.38227e-10 1.38227e-10 1.38227e-10 6.38227e-10)
(1.94016e-09 -1.17283e-10 1.49678e-10 -1.17283e-10 7.06299e-10 1.49678e-10 1.49678e-10 1.49678e-10 6.49678e-10)
(2.05876e-09 -1.07936e-10 1.61178e-10 -1.07936e-10 7.14205e-10 1.61178e-10 1.61178e-10 1.61178e-10 6.61178e-10)
(2.1772e-09 -9.56045e-11 1.72607e-10 -9.56045e-11 7.2148e-10 1.72607e-10 1.72607e-10 1.72607e-10 6.72607e-10)
(2.29413e-09 -8.04023e-11 1.83844e-10 -8.04023e-11 7.28156e-10 1.83844e-10 1.83844e-10 1.83844e-10 6.83844e-10)
(2.40823e-09 -6.24797e-11 1.94772e-10 -6.24797e-11 7.34262e-10 1.94772e-10 1.94772e-10 1.94772e-10 6.94772e-10)
(2.5182e-09 -4.20226e-11 2.05275e-10 -4.20226e-11 7.39819e-10 2.05275e-10 2.05275e-10 2.05275e-10 7.05275e-10)
(2.62284e-09 -1.9249e-11 2.15244e-10 -1.9249e-11 7.44846e-10 2.15244e-10 2.15244e-10 2.15244e-10 7.15244e-10)
(2.72098e-09 5.59469e-12 2.24576e-10 5.59469e-12 7.49354e-10 2.24576e-10 2.24576e-10 2.24576e-10 7.24576e-10)
(2.81156e-09 3.22417e-11 2.33174e-10 3.22417e-11 7.53348e-10 2.33174e-10 2.33174e-10 2.33174e-10 7.33174e-10)
(2.8936e-09 6.04118e-11 2.40948e-10 6.04118e-11 7.56834e-10 2.40948e-10 2.40948e-10 2.40948e-10 7.40948e-10)
(2.9662e-09 8.98041e-11 2.47821e-10 8.98041e-11 7.59825e-10 2.47821e-10 2.47821e-10 2.47821e-10 7.47821e-10)
(3.02859e-09 1.201e-10 2.5372e-10 1.201e-10 7.62329e-10 2.5372e-10 2.5372e-10 2.5372e-10 7.5372e-10)
(3.0801e-09 1.50973e-10 2.58586e-10 1.50973e-10 7.64351e-10 2.58586e-10 2.58586e-10 2.58586e-10 7.58586e-10)
(3.12017e-09 1.82092e-10 2.6237e-10 1.82092e-10 7.65902e-10 2.6237e-10 2.6237e-10 2.6237e-10 7.6237e-10)
(3.1484e-09 2.1312e-10 2.65035e-10 2.1312e-10 7.6699e-10 2.65035e-10 2.65035e-10 2.65035e-10 7.65035e-10)
(3.16448e-09 2.43723e-10 2.66555e-10 2.43723e-10 7.6762e-10 2.66555e-10 2.66555e-10 2.66555e-10 7.66555e-10)
(3.16826e-09 2.73579e-10 2.66915e-10 2.73579e-10 7.67802e-10 2.66915e-10 2.66915e-10 2.66915e-10 7.66915e-10)
(3.15969e-09 3.02369e-10 2.66113e-10 3.02369e-10 7.67553e-10 2.66113e-10 2.66113e-10 2.66113e-10 7.66113e-10)
(3.13884e-09 3.29777e-10 2.64158e-10 3.29777e-10 7.6689e-10 2.64158e-10 2.64158e-10 2.64158e-10 7.64158e-10)
(3.10595e-09 3.55499e-10 2.61071e-10 3.55499e-10 7.6583e-10 2.61071e-10 2.61071e-10 2.61071e-10 7.61071e-10)
(3.06136e-09 3.79241e-10 2.56886e-10 3.79241e-10 7.64383e-10 2.56886e-10 2.56886e-10 2.56886e-10 7.56886e-10)
(3.00424e-09 4.00634e-10 2.51516e-10 4.00634e-10 7.62436e-10 2.51516e-10 2.51516e-10 2.51516e-10 7.51516e-10)
(2.94e-09 4.1891e-10 2.45478e-10 4.1891e-10 7.60261e-10 2.45478e-10 2.45478e-10 2.45478e-10 7.45478e-10)
(2.86441e-09 4.32653e-10 2.38326e-10 4.32653e-10 7.57171e-10 2.38326e-10 2.38326e-10 2.38326e-10 7.38326e-10)
(2.77849e-09 4.4238e-10 2.30155e-10 4.4238e-10 7.53221e-10 2.30155e-10 2.30155e-10 2.30155e-10 7.30155e-10)
(2.6856e-09 4.4872e-10 2.213e-10 4.4872e-10 7.48696e-10 2.213e-10 2.213e-10 2.213e-10 7.213e-10)
(2.58596e-09 4.5159e-10 2.1177e-10 4.5159e-10 7.43511e-10 2.1177e-10 2.1177e-10 2.1177e-10 7.1177e-10)
(2.48063e-09 4.5101e-10 2.01662e-10 4.5101e-10 7.37655e-10 2.01662e-10 2.01662e-10 2.01662e-10 7.01662e-10)
(2.37073e-09 4.47033e-10 1.91078e-10 4.47033e-10 7.31123e-10 1.91078e-10 1.91078e-10 1.91078e-10 6.91078e-10)
(2.25746e-09 4.39752e-10 1.80125e-10 4.39752e-10 7.23914e-10 1.80125e-10 1.80125e-10 1.80125e-10 6.80125e-10)
(2.14202e-09 4.2929e-10 1.68914e-10 4.2929e-10 7.16029e-10 1.68914e-10 1.68914e-10 1.68914e-10 6.68914e-10)
(2.02569e-09 4.1581e-10 1.57561e-10 4.1581e-10 7.0748e-10 1.57561e-10 1.57561e-10 1.57561e-10 6.57561e-10)
(1.90975e-09 3.99507e-10 1.46184e-10 3.99507e-10 6.98282e-10 1.46184e-10 1.46184e-10 1.46184e-10 6.46184e-10)
(1.79547e-09 3.80615e-10 1.349e-10 3.80615e-10 6.88425e-10 1.349e-10 1.349e-10 1.349e-10 6.349e-10)
(1.68417e-09 3.59401e-10 1.23825e-10 3.59401e-10 6.77903e-10 1.23825e-10 1.23825e-10 1.23825e-10 6.23825e-10)
(1.57958e-09 3.36428e-10 1.1331e-10 3.36428e-10 6.66835e-10 1.1331e-10 1.1331e-10 1.1331e-10 6.1331e-10)
(1.39912e-09 4.35758e-10 1.04375e-10 4.35758e-10 7.49009e-10 1.04375e-10 1.04375e-10 1.04375e-10 6.04375e-10)
(1.30417e-09 4.02595e-10 9.45338e-11 4.02595e-10 7.35705e-10 9.45338e-11 9.45338e-11 9.45338e-11 5.94534e-10)
(1.21151e-09 3.66018e-10 8.46347e-11 3.66018e-10 7.19469e-10 8.46347e-11 8.46347e-11 8.46347e-11 5.84635e-10)
(1.12909e-09 3.27622e-10 7.5353e-11 3.27622e-10 6.9979e-10 7.5353e-11 7.5353e-11 7.5353e-11 5.75353e-10)
(1.05799e-09 2.88017e-10 6.67795e-11 2.88017e-10 6.76583e-10 6.67795e-11 6.67795e-11 6.67795e-11 5.6678e-10)
(9.99065e-10 2.47677e-10 5.90166e-11 2.47677e-10 6.50117e-10 5.90166e-11 5.90166e-11 5.90166e-11 5.59017e-10)
(9.52855e-10 2.06756e-10 5.21945e-11 2.06756e-10 6.21284e-10 5.21945e-11 5.21945e-11 5.21945e-11 5.52194e-10)
(9.1942e-10 1.6493e-10 4.64928e-11 1.6493e-10 5.92001e-10 4.64928e-11 4.64928e-11 4.64928e-11 5.46493e-10)
(8.98025e-10 1.21535e-10 4.2161e-11 1.21535e-10 5.65746e-10 4.2161e-11 4.2161e-11 4.2161e-11 5.42161e-10)
(8.86958e-10 7.62507e-11 3.94946e-11 7.62507e-11 5.47483e-10 3.94946e-11 3.94946e-11 3.94946e-11 5.39495e-10)
(8.84071e-10 3.03799e-11 3.87578e-11 3.03799e-11 5.42265e-10 3.87578e-11 3.87578e-11 3.87578e-11 5.38758e-10)
(8.88471e-10 -1.31423e-11 4.00486e-11 -1.31423e-11 5.52063e-10 4.00486e-11 4.00486e-11 4.00486e-11 5.40049e-10)
(9.01433e-10 -5.19277e-11 4.32338e-11 -5.19277e-11 5.74139e-10 4.32338e-11 4.32338e-11 4.32338e-11 5.43234e-10)
(9.25086e-10 -8.57511e-11 4.80351e-11 -8.57511e-11 6.03301e-10 4.80351e-11 4.80351e-11 4.80351e-11 5.48035e-10)
(9.60877e-10 -1.15817e-10 5.41629e-11 -1.15817e-10 6.34916e-10 5.41629e-11 5.41629e-11 5.41629e-11 5.54163e-10)
(1.00929e-09 -1.43388e-10 6.13868e-11 -1.43388e-10 6.65969e-10 6.13868e-11 6.13868e-11 6.13868e-11 5.61387e-10)
(1.07016e-09 -1.69153e-10 6.95413e-11 -1.69153e-10 6.94792e-10 6.95413e-11 6.95413e-11 6.95413e-11 5.69541e-10)
(1.14301e-09 -1.93217e-10 7.85062e-11 -1.93217e-10 7.20557e-10 7.85062e-11 7.85062e-11 7.85062e-11 5.78506e-10)
(1.22715e-09 -2.15254e-10 8.81795e-11 -2.15254e-10 7.4282e-10 8.81795e-11 8.81795e-11 8.81795e-11 5.8818e-10)
(1.32167e-09 -2.3471e-10 9.84679e-11 -2.3471e-10 7.61475e-10 9.84679e-11 9.84679e-11 9.84679e-11 5.98468e-10)
(1.42543e-09 -2.50967e-10 1.09279e-10 -2.50967e-10 7.76635e-10 1.09279e-10 1.09279e-10 1.09279e-10 6.09279e-10)
(1.53713e-09 -2.6345e-10 1.20516e-10 -2.6345e-10 7.8855e-10 1.20516e-10 1.20516e-10 1.20516e-10 6.20516e-10)
(1.65533e-09 -2.71685e-10 1.32078e-10 -2.71685e-10 7.97533e-10 1.32078e-10 1.32078e-10 1.32078e-10 6.32078e-10)
(1.77852e-09 -2.75313e-10 1.43858e-10 -2.75313e-10 8.0392e-10 1.43858e-10 1.43858e-10 1.43858e-10 6.43858e-10)
(1.90516e-09 -2.74084e-10 1.55746e-10 -2.74084e-10 8.08047e-10 1.55746e-10 1.55746e-10 1.55746e-10 6.55746e-10)
(2.03367e-09 -2.67854e-10 1.67628e-10 -2.67854e-10 8.10237e-10 1.67628e-10 1.67628e-10 1.67628e-10 6.67628e-10)