/*--------------------------------*- C++ -*----------------------------------*\
| =========                 |                                                 |
| \\      /  F ield         | OpenFOAM: The Open Source CFD Toolbox           |
|  \\    /   O peration     | Version:  5.x                                   |
|   \\  /    A nd           | Web:      www.OpenFOAM.org                      |
|    \\/     M anipulation  |                                                 |
\*---------------------------------------------------------------------------*/
FoamFile
{
    version     2.0;
    format      ascii;
    class       volScalarField;
    location    "300/subsurface";
    object      pMean;
}
// * * * * * * * * * * * * * * * * * * * * * * * * * * * * * * * * * * * * * //

dimensions      [0 2 -2 0 0 0 0];

internalField   nonuniform List<scalar> 
7200
(
6.48048e-05
6.60492e-05
6.74839e-05
6.90933e-05
7.08599e-05
7.27641e-05
7.4785e-05
7.69003e-05
7.90865e-05
8.13195e-05
8.35742e-05
8.58257e-05
8.80488e-05
9.02187e-05
9.23113e-05
9.43032e-05
9.61722e-05
9.78975e-05
9.946e-05
0.000100842
0.000102029
0.000103008
0.000103768
0.0001043
0.000104599
0.000104663
0.00010449
0.000104082
0.000103445
0.000102586
0.000101514
0.000100242
9.87824e-05
9.71527e-05
9.53703e-05
9.3455e-05
9.14274e-05
8.93098e-05
8.71251e-05
8.4897e-05
8.26497e-05
8.04075e-05
7.81947e-05
7.6035e-05
7.3952e-05
7.19681e-05
7.01081e-05
6.83911e-05
6.68336e-05
6.54524e-05
6.42622e-05
6.32761e-05
6.25049e-05
6.19571e-05
6.16388e-05
6.15537e-05
6.17031e-05
6.20856e-05
6.26973e-05
6.3532e-05
6.45821e-05
6.58354e-05
6.72796e-05
6.88989e-05
7.06759e-05
7.2591e-05
7.46233e-05
7.67504e-05
7.89488e-05
8.11943e-05
8.34619e-05
8.57265e-05
8.7963e-05
9.01466e-05
9.2253e-05
9.42589e-05
9.6142e-05
9.78816e-05
9.94585e-05
0.000100855
0.000102057
0.00010305
0.000103824
0.00010437
0.000104683
0.000104761
0.000104601
0.000104207
0.000103583
0.000102736
0.000101677
0.000100416
9.89679e-05
9.7349e-05
9.5577e-05
9.36713e-05
9.16528e-05
8.95437e-05
8.73668e-05
8.51458e-05
8.29049e-05
8.06683e-05
7.84603e-05
7.63048e-05
7.42251e-05
7.22438e-05
7.03855e-05
6.86694e-05
6.71122e-05
6.57303e-05
6.45387e-05
6.35505e-05
6.27763e-05
6.22248e-05
6.1902e-05
6.18118e-05
6.19554e-05
6.23314e-05
6.2936e-05
6.3763e-05
6.42607e-05
6.55391e-05
6.70144e-05
6.86708e-05
7.04901e-05
7.24524e-05
7.45361e-05
7.67183e-05
7.89746e-05
8.128e-05
8.36088e-05
8.59351e-05
8.82327e-05
9.0476e-05
9.26397e-05
9.46998e-05
9.66332e-05
9.84181e-05
0.000100035
0.000101465
0.000102693
0.000103705
0.000104491
0.00010504
0.000105349
0.000105412
0.000105231
0.000104806
0.000104143
0.000103249
0.000102135
0.000100812
9.92961e-05
9.76028e-05
9.5751e-05
9.37611e-05
9.16546e-05
8.94547e-05
8.71851e-05
8.48705e-05
8.25359e-05
8.02066e-05
7.79078e-05
7.56645e-05
7.35008e-05
7.14402e-05
6.95155e-05
6.77522e-05
6.61608e-05
6.47536e-05
6.35455e-05
6.25491e-05
6.1775e-05
6.12313e-05
6.09238e-05
6.08556e-05
6.10276e-05
6.14379e-05
6.2082e-05
6.2953e-05
6.40365e-05
6.53239e-05
6.68087e-05
6.84751e-05
7.03049e-05
7.22782e-05
7.43734e-05
7.65674e-05
7.8836e-05
8.11541e-05
8.34958e-05
8.58353e-05
8.81464e-05
9.04035e-05
9.25812e-05
9.46554e-05
9.6603e-05
9.84023e-05
0.000100033
0.000101478
0.000102721
0.000103747
0.000104547
0.000105111
0.000105434
0.000105511
0.000105343
0.000104932
0.000104282
0.000103401
0.000102299
0.000100989
9.94837e-05
9.78013e-05
9.59599e-05
9.39798e-05
9.18826e-05
8.96912e-05
8.74294e-05
8.5122e-05
8.27938e-05
8.04702e-05
7.81764e-05
7.59372e-05
7.37768e-05
7.17188e-05
6.97958e-05
6.80334e-05
6.64421e-05
6.50342e-05
6.38245e-05
6.28259e-05
6.20487e-05
6.15012e-05
6.11891e-05
6.11158e-05
6.12818e-05
6.16855e-05
6.23224e-05
6.31856e-05
6.32189e-05
6.45607e-05
6.6112e-05
6.78562e-05
6.97744e-05
7.18457e-05
7.40473e-05
7.63551e-05
7.87434e-05
8.11856e-05
8.36544e-05
8.61222e-05
8.85612e-05
9.0944e-05
9.32437e-05
9.54345e-05
9.74915e-05
9.93916e-05
0.000101113
0.000102638
0.000103947
0.000105027
0.000105865
0.000106452
0.000106782
0.000106851
0.000106659
0.000106206
0.0001055
0.000104547
0.000103357
0.000101945
0.000100325
9.85158e-05
9.65365e-05
9.44088e-05
9.21559e-05
8.98022e-05
8.73733e-05
8.48954e-05
8.23953e-05
7.99001e-05
7.74368e-05
7.50319e-05
7.27117e-05
7.05012e-05
6.84466e-05
6.65852e-05
6.49186e-05
6.34522e-05
6.22007e-05
6.11766e-05
6.03898e-05
5.98481e-05
5.95566e-05
5.95176e-05
5.97309e-05
6.01937e-05
6.09005e-05
6.18433e-05
6.29919e-05
6.43427e-05
6.59037e-05
6.7658e-05
6.95869e-05
7.16693e-05
7.38826e-05
7.62024e-05
7.86031e-05
8.1058e-05
8.354e-05
8.60212e-05
8.84739e-05
9.08706e-05
9.31845e-05
9.53895e-05
9.74611e-05
9.93758e-05
0.000101112
0.000102651
0.000103975
0.00010507
0.000105923
0.000106525
0.000106869
0.000106952
0.000106773
0.000106335
0.000105641
0.000104701
0.000103524
0.000102124
0.000100516
9.87181e-05
9.67494e-05
9.46317e-05
9.23882e-05
9.00433e-05
8.76224e-05
8.51518e-05
8.26584e-05
8.0169e-05
7.77107e-05
7.53101e-05
7.29933e-05
7.07854e-05
6.87324e-05
6.68718e-05
6.52051e-05
6.37378e-05
6.24846e-05
6.1458e-05
6.0668e-05
6.01223e-05
5.9826e-05
5.97815e-05
5.99887e-05
6.04447e-05
6.11441e-05
6.20789e-05
6.17107e-05
6.31433e-05
6.48035e-05
6.66738e-05
6.8734e-05
7.09621e-05
7.33336e-05
7.58224e-05
7.8401e-05
8.10407e-05
8.37118e-05
8.63843e-05
8.90281e-05
9.16131e-05
9.41101e-05
9.64907e-05
9.87277e-05
0.000100796
0.000102671
0.000104332
0.000105761
0.00010694
0.000107857
0.000108501
0.000108864
0.000108943
0.000108736
0.000108247
0.000107479
0.000106441
0.000105145
0.000103605
0.000101837
9.98616e-05
9.76991e-05
9.53732e-05
9.29092e-05
9.03337e-05
8.76745e-05
8.49603e-05
8.22203e-05
7.94842e-05
7.67815e-05
7.41414e-05
7.15926e-05
6.91628e-05
6.69168e-05
6.49098e-05
6.31309e-05
6.15756e-05
6.02585e-05
5.91917e-05
5.83847e-05
5.78443e-05
5.75748e-05
5.75773e-05
5.78503e-05
5.83897e-05
5.91882e-05
6.02362e-05
6.14796e-05
6.29214e-05
6.45914e-05
6.64721e-05
6.85432e-05
7.07826e-05
7.31659e-05
7.5667e-05
7.82582e-05
8.09108e-05
8.35953e-05
8.62815e-05
8.89392e-05
9.15384e-05
9.40498e-05
9.64449e-05
9.86967e-05
0.000100779
0.00010267
0.000104346
0.00010579
0.000106984
0.000107916
0.000108574
0.000108953
0.000109046
0.000108854
0.000108378
0.000107624
0.000106599
0.000105316
0.000103789
0.000102033
0.000100069
9.79176e-05
9.56021e-05
9.31478e-05
9.05813e-05
8.79304e-05
8.52237e-05
8.24906e-05
7.97604e-05
7.70629e-05
7.44272e-05
7.18819e-05
6.94547e-05
6.72105e-05
6.5204e-05
6.34248e-05
6.18684e-05
6.05493e-05
5.94797e-05
5.86692e-05
5.81245e-05
5.78499e-05
5.78467e-05
5.81133e-05
5.86456e-05
5.94364e-05
6.04761e-05
5.97562e-05
6.13054e-05
6.31057e-05
6.51385e-05
6.73822e-05
6.98128e-05
7.24039e-05
7.51272e-05
7.79525e-05
8.08482e-05
8.37819e-05
8.67204e-05
8.96304e-05
9.24785e-05
9.52322e-05
9.786e-05
0.000100331
0.000102618
0.000104694
0.000106534
0.000108119
0.000109428
0.000110448
0.000111166
0.000111574
0.000111667
0.000111443
0.000110905
0.000110058
0.000108912
0.000107478
0.000105773
0.000103813
0.000101622
9.92218e-05
9.66387e-05
9.39004e-05
9.10366e-05
8.80778e-05
8.50559e-05
8.20035e-05
7.89534e-05
7.59384e-05
7.29911e-05
7.01436e-05
6.74267e-05
6.49304e-05
6.27331e-05
6.08079e-05
5.91369e-05
5.77345e-05
5.66123e-05
5.57792e-05
5.5241e-05
5.50005e-05
5.50577e-05
5.54091e-05
5.60488e-05
5.69675e-05
5.81532e-05
5.95199e-05
6.10786e-05
6.2889e-05
6.49323e-05
6.71871e-05
6.96293e-05
7.22325e-05
7.49683e-05
7.78064e-05
8.07155e-05
8.36628e-05
8.66153e-05
8.95394e-05
9.2402e-05
9.51705e-05
9.78131e-05
0.0001003
0.000102602
0.000104693
0.000106549
0.000108148
0.000109473
0.000110508
0.000111242
0.000111665
0.000111773
0.000111564
0.00011104
0.000110208
0.000109075
0.000107655
0.000105962
0.000104016
0.000101836
9.94473e-05
9.6875e-05
9.41469e-05
9.12924e-05
8.83422e-05
8.53283e-05
8.22829e-05
7.9239e-05
7.62294e-05
7.32867e-05
7.04428e-05
6.77287e-05
6.52339e-05
6.30371e-05
6.11113e-05
5.94388e-05
5.80341e-05
5.69088e-05
5.60718e-05
5.5529e-05
5.52831e-05
5.53341e-05
5.56787e-05
5.63109e-05
5.72215e-05
5.83986e-05
5.73672e-05
5.90578e-05
6.10283e-05
6.32587e-05
6.57258e-05
6.84036e-05
7.1263e-05
7.4273e-05
7.74003e-05
8.06099e-05
8.38656e-05
8.71305e-05
9.03673e-05
9.35387e-05
9.6608e-05
9.95397e-05
0.0001023
0.000104856
0.000107178
0.000109239
0.000111015
0.000112485
0.000113632
0.000114442
0.000114904
0.000115014
0.00011477
0.000114173
0.00011323
0.00011195
0.000110347
0.000108438
0.000106244
0.000103787
0.000101095
9.81958e-05
9.51205e-05
9.1902e-05
8.85749e-05
8.51746e-05
8.17376e-05
7.83009e-05
7.49013e-05
7.15754e-05
6.83595e-05
6.52883e-05
6.24834e-05
6.00535e-05
5.79503e-05
5.6139e-05
5.46336e-05
5.34454e-05
5.25821e-05
5.20483e-05
5.18453e-05
5.1971e-05
5.24202e-05
5.31842e-05
5.42515e-05
5.56074e-05
5.71249e-05
5.88251e-05
6.08059e-05
6.30472e-05
6.55258e-05
6.82154e-05
7.10872e-05
7.411e-05
7.72505e-05
8.04736e-05
8.37433e-05
8.70225e-05
9.02739e-05
9.34601e-05
9.65445e-05
9.94915e-05
0.000102267
0.000104839
0.000107177
0.000109254
0.000111046
0.000112532
0.000113694
0.00011452
0.000114998
0.000115124
0.000114894
0.000114313
0.000113384
0.000112119
0.00011053
0.000108635
0.000106453
0.000104009
0.000101329
9.8441e-05
9.53762e-05
9.21676e-05
8.88495e-05
8.54575e-05
8.2028e-05
7.85977e-05
7.52037e-05
7.18827e-05
6.86705e-05
6.56022e-05
6.27989e-05
6.03691e-05
5.8265e-05
5.64518e-05
5.49438e-05
5.37521e-05
5.28845e-05
5.23456e-05
5.21366e-05
5.22557e-05
5.26976e-05
5.34537e-05
5.45124e-05
5.58591e-05
5.455e-05
5.64056e-05
5.85754e-05
6.10378e-05
6.37678e-05
6.67366e-05
6.99125e-05
7.32611e-05
7.67454e-05
8.03264e-05
8.39635e-05
8.76154e-05
9.12398e-05
9.47948e-05
9.82388e-05
0.000101531
0.000104634
0.00010751
0.000110125
0.000112449
0.000114453
0.000116113
0.00011741
0.000118329
0.000118856
0.000118987
0.000118717
0.00011805
0.000116992
0.000115553
0.000113749
0.000111599
0.000109125
0.000106354
0.000103315
0.00010004
9.65639e-05
9.29242e-05
8.91594e-05
8.53094e-05
8.14154e-05
7.7519e-05
7.3662e-05
6.98857e-05
6.62312e-05
6.27381e-05
5.95668e-05
5.68629e-05
5.4552e-05
5.25777e-05
5.09539e-05
4.96906e-05
4.87946e-05
4.82689e-05
4.81129e-05
4.83222e-05
4.8889e-05
4.98022e-05
5.10469e-05
5.26053e-05
5.43007e-05
5.61664e-05
5.83468e-05
6.08204e-05
6.3562e-05
6.6543e-05
6.97317e-05
7.30934e-05
7.65912e-05
8.01862e-05
8.38377e-05
8.75041e-05
9.11435e-05
9.47137e-05
9.81732e-05
0.000101482
0.0001046
0.000107492
0.000110124
0.000112463
0.000114484
0.000116161
0.000117474
0.000118409
0.000118953
0.0001191
0.000118846
0.000118195
0.000117152
0.000115728
0.000113939
0.000111803
0.000109343
0.000106585
0.000103558
0.000100295
9.68303e-05
9.3201e-05
8.94457e-05
8.56045e-05
8.17183e-05
7.78288e-05
7.39776e-05
7.02064e-05
6.65559e-05
6.30658e-05
5.9896e-05
5.7192e-05
5.48797e-05
5.29032e-05
5.12762e-05
5.00089e-05
4.91081e-05
4.85767e-05
4.84142e-05
4.86164e-05
4.91754e-05
5.008e-05
5.13156e-05
5.28644e-05
5.13067e-05
5.33503e-05
5.57478e-05
5.8476e-05
6.15075e-05
6.48111e-05
6.83516e-05
7.20907e-05
7.59873e-05
7.99977e-05
8.40763e-05
8.81762e-05
9.22499e-05
9.62496e-05
0.000100128
0.00010384
0.00010734
0.000110587
0.000113542
0.00011617
0.000118438
0.000120319
0.000121791
0.000122834
0.000123437
0.00012359
0.000123291
0.000122542
0.000121349
0.000119726
0.000117688
0.000115257
0.000112458
0.000109321
0.000105879
0.000102168
9.82275e-05
9.40989e-05
8.98259e-05
8.5454e-05
8.10294e-05
7.65993e-05
7.2211e-05
6.79116e-05
6.37473e-05
5.97635e-05
5.61677e-05
5.31498e-05
5.0603e-05
4.84447e-05
4.66882e-05
4.53425e-05
4.44128e-05
4.39003e-05
4.38019e-05
4.41109e-05
4.48165e-05
4.59042e-05
4.73557e-05
4.91496e-05
5.10498e-05
5.31037e-05
5.55122e-05
5.82519e-05
6.12956e-05
6.46117e-05
6.81652e-05
7.19179e-05
7.58284e-05
7.98531e-05
8.39464e-05
8.80614e-05
9.21504e-05
9.61658e-05
0.00010006
0.000103788
0.000107305
0.000110568
0.00011354
0.000116184
0.00011847
0.000120368
0.000121857
0.000122917
0.000123537
0.000123707
0.000123425
0.000122692
0.000121516
0.000119908
0.000117885
0.000115469
0.000112685
0.000109562
0.000106133
0.000102435
9.85059e-05
9.43883e-05
9.01255e-05
8.57627e-05
8.13464e-05
7.69236e-05
7.25415e-05
6.82473e-05
6.40873e-05
6.01066e-05
5.65122e-05
5.34939e-05
5.09453e-05
4.87842e-05
4.7024e-05
4.56738e-05
4.47387e-05
4.42199e-05
4.41145e-05
4.44157e-05
4.51128e-05
4.61913e-05
4.76331e-05
4.94168e-05
4.76368e-05
4.98906e-05
5.25436e-05
5.55709e-05
5.89427e-05
6.26246e-05
6.65778e-05
7.076e-05
7.51248e-05
7.96234e-05
8.42044e-05
8.88147e-05
9.34005e-05
9.79074e-05
0.000102282
0.000106471
0.000110425
0.000114096
0.000117438
0.000120412
0.000122981
0.000125114
0.000126784
0.000127969
0.000128656
0.000128834
0.0001285
0.000127656
0.00012631
0.000124474
0.000122168
0.000119416
0.000116246
0.000112691
0.000108789
0.00010458
0.000100109
9.54226e-05
9.05699e-05
8.56023e-05
8.05722e-05
7.5533e-05
7.05382e-05
6.56413e-05
6.08948e-05
5.63503e-05
5.22711e-05
4.88999e-05
4.60904e-05
4.37287e-05
4.18269e-05
4.03929e-05
3.943e-05
3.8937e-05
3.89083e-05
3.93341e-05
4.02004e-05
4.14888e-05
4.31772e-05
4.524e-05
4.73716e-05
4.96362e-05
5.23005e-05
5.53397e-05
5.8724e-05
6.24188e-05
6.63855e-05
7.05816e-05
7.49607e-05
7.94741e-05
8.40701e-05
8.8696e-05
9.32975e-05
9.78206e-05
0.000102211
0.000106417
0.000110388
0.000114076
0.000117436
0.000120427
0.000123014
0.000125164
0.000126852
0.000128055
0.00012876
0.000128956
0.000128639
0.000127812
0.000126483
0.000124664
0.000122374
0.000119638
0.000116483
0.000112943
0.000109055
0.00010486
0.000100401
9.57259e-05
9.08839e-05
8.59261e-05
8.09047e-05
7.58732e-05
7.08851e-05
6.59937e-05
6.12516e-05
5.67104e-05
5.26326e-05
4.92605e-05
4.64488e-05
4.40837e-05
4.21777e-05
4.07384e-05
3.97694e-05
3.92694e-05
3.9233e-05
3.96503e-05
4.05074e-05
4.1786e-05
4.34641e-05
4.55159e-05
4.35382e-05
4.60237e-05
4.89595e-05
5.23188e-05
5.60692e-05
6.01731e-05
6.45878e-05
6.92658e-05
7.41558e-05
7.92025e-05
8.43481e-05
8.95327e-05
9.46949e-05
9.9773e-05
0.000104706
0.000109434
0.000113899
0.000118046
0.000121825
0.000125189
0.000128097
0.000130511
0.000132403
0.000133747
0.000134527
0.000134732
0.000134357
0.000133404
0.000131883
0.000129807
0.000127198
0.000124083
0.000120494
0.000116468
0.000112047
0.000107277
0.000102208
9.68926e-05
9.13868e-05
8.57482e-05
8.00362e-05
7.43108e-05
6.86329e-05
6.30628e-05
5.76602e-05
5.24834e-05
4.78614e-05
4.40984e-05
4.10009e-05
3.84176e-05
3.63595e-05
3.48326e-05
3.38381e-05
3.33722e-05
3.34263e-05
3.39871e-05
3.50367e-05
3.65529e-05
3.85091e-05
4.08747e-05
4.32642e-05
4.57609e-05
4.87084e-05
5.208e-05
5.58433e-05
5.99606e-05
6.43892e-05
6.90816e-05
7.39862e-05
7.90481e-05
8.42093e-05
8.94097e-05
9.45882e-05
9.96829e-05
0.000104633
0.000109378
0.00011386
0.000118025
0.000121822
0.000125204
0.00012813
0.000130563
0.000132473
0.000133836
0.000134635
0.000134858
0.000134501
0.000133567
0.000132063
0.000130005
0.000127413
0.000124315
0.000120742
0.000116731
0.000112325
0.000107569
0.000102514
9.72109e-05
9.17166e-05
8.60884e-05
8.03856e-05
7.46685e-05
6.89976e-05
6.34333e-05
5.80353e-05
5.2862e-05
4.82413e-05
4.4477e-05
4.13767e-05
3.87894e-05
3.67263e-05
3.51935e-05
3.41921e-05
3.37184e-05
3.3764e-05
3.43156e-05
3.53553e-05
3.68609e-05
3.88059e-05
4.116e-05
3.90082e-05
4.17461e-05
4.49912e-05
4.8715e-05
5.28823e-05
5.74521e-05
6.23772e-05
6.76049e-05
7.30777e-05
7.87338e-05
8.45078e-05
9.03319e-05
9.61367e-05
0.000101852
0.000107408
0.000112736
0.000117771
0.00012245
0.000126716
0.000130514
0.000133797
0.000136525
0.000138662
0.000140182
0.000141064
0.000141296
0.000140873
0.000139797
0.000138078
0.000135732
0.000132784
0.000129263
0.000125205
0.000120653
0.000115653
0.000110257
0.000104522
9.85057e-05
9.2272e-05
8.58857e-05
7.94137e-05
7.29238e-05
6.64845e-05
6.0164e-05
5.40298e-05
4.81479e-05
4.29232e-05
3.87306e-05
3.53212e-05
3.24997e-05
3.02754e-05
2.86524e-05
2.76292e-05
2.7199e-05
2.73499e-05
2.80647e-05
2.93213e-05
3.1093e-05
3.33482e-05
3.60512e-05
3.87249e-05
4.14744e-05
4.47317e-05
4.84683e-05
5.2649e-05
5.72326e-05
6.2172e-05
6.74144e-05
7.29024e-05
7.85741e-05
8.43641e-05
9.02046e-05
9.6026e-05
0.000101758
0.000107332
0.000112678
0.000117731
0.000122428
0.000126712
0.000130529
0.000133831
0.000136578
0.000138734
0.000140273
0.000141175
0.000141426
0.000141022
0.000139965
0.000138265
0.000135938
0.000133008
0.000129505
0.000125465
0.000120929
0.000115945
0.000110564
0.000104843
9.88402e-05
9.26187e-05
8.62435e-05
7.97814e-05
7.33002e-05
6.68683e-05
6.05541e-05
5.44248e-05
4.85464e-05
4.33229e-05
3.91285e-05
3.57156e-05
3.28893e-05
3.06593e-05
2.90296e-05
2.79987e-05
2.756e-05
2.77015e-05
2.84062e-05
2.96521e-05
3.14124e-05
3.36556e-05
3.63463e-05
3.40437e-05
3.70538e-05
4.06342e-05
4.47544e-05
4.93768e-05
5.44564e-05
5.99413e-05
6.57731e-05
7.18877e-05
7.82157e-05
8.46835e-05
9.12143e-05
9.77295e-05
0.000104149
0.000110395
0.000116387
0.000122053
0.00012732
0.000132122
0.000136399
0.000140097
0.000143169
0.000145575
0.000147286
0.000148278
0.000148538
0.000148058
0.000146843
0.000144904
0.000142258
0.000138932
0.000134961
0.000130385
0.00012525
0.000119609
0.000113521
0.000107049
0.000100259
9.32208e-05
8.60086e-05
7.86971e-05
7.13627e-05
6.40825e-05
5.69332e-05
4.99909e-05
4.33297e-05
3.7442e-05
3.27831e-05
2.90392e-05
2.59642e-05
2.35654e-05
2.18443e-05
2.07965e-05
2.04117e-05
2.06742e-05
2.15626e-05
2.30504e-05
2.51056e-05
2.76916e-05
3.0767e-05
3.37509e-05
3.6773e-05
4.0366e-05
4.44995e-05
4.91356e-05
5.42295e-05
5.97292e-05
6.55763e-05
7.17065e-05
7.80505e-05
8.45347e-05
9.10824e-05
9.76147e-05
0.000104052
0.000110315
0.000116326
0.00012201
0.000127296
0.000132117
0.000136414
0.000140131
0.000143223
0.00014565
0.000147381
0.000148393
0.000148673
0.000148214
0.000147019
0.000145099
0.000142473
0.000139167
0.000135215
0.000130656
0.000125539
0.000119916
0.000113844
0.000107387
0.00010061
9.35856e-05
8.63852e-05
7.90843e-05
7.17592e-05
6.44869e-05
5.73442e-05
5.04069e-05
4.37495e-05
3.78628e-05
3.32015e-05
2.94534e-05
2.63729e-05
2.39675e-05
2.22388e-05
2.11824e-05
2.07881e-05
2.10404e-05
2.19178e-05
2.33939e-05
2.54369e-05
2.80101e-05
3.10723e-05
2.86424e-05
3.19434e-05
3.5884e-05
4.04321e-05
4.55472e-05
5.11805e-05
5.72751e-05
6.37664e-05
7.05828e-05
7.76466e-05
8.48751e-05
9.21817e-05
9.94772e-05
0.000106671
0.000113674
0.000120397
0.000126754
0.000132667
0.000138058
0.000142859
0.00014701
0.000150457
0.000153156
0.000155073
0.000156183
0.000156468
0.000155924
0.000154554
0.000152368
0.00014939
0.000145648
0.000141181
0.000136034
0.000130259
0.000123915
0.000117068
0.000109787
0.000102147
9.42279e-05
8.61103e-05
7.78788e-05
6.96189e-05
6.14171e-05
5.33596e-05
4.55315e-05
3.80162e-05
3.1405e-05
2.62442e-05
2.2145e-05
1.88028e-05
1.62225e-05
1.44025e-05
1.33349e-05
1.30059e-05
1.33955e-05
1.44778e-05
1.62211e-05
1.85884e-05
2.15372e-05
2.502e-05
2.83397e-05
3.16532e-05
3.56069e-05
4.01687e-05
4.52981e-05
5.09462e-05
5.70561e-05
6.3563e-05
7.03955e-05
7.74757e-05
8.47211e-05
9.20449e-05
9.9358e-05
0.00010657
0.000113591
0.000120332
0.000126709
0.000132641
0.000138052
0.000142873
0.000147044
0.000150512
0.000153232
0.000155171
0.000156301
0.000156608
0.000156086
0.000154736
0.000152572
0.000149615
0.000145894
0.000141446
0.000136319
0.000130562
0.000124237
0.000117407
0.000110142
0.000102518
9.46119e-05
8.6507e-05
7.82867e-05
7.00367e-05
6.18433e-05
5.37927e-05
4.59699e-05
3.84585e-05
3.18481e-05
2.66843e-05
2.258e-05
1.92315e-05
1.66436e-05
1.48151e-05
1.3738e-05
1.33986e-05
1.37769e-05
1.48472e-05
1.6578e-05
1.89321e-05
2.18672e-05
2.53359e-05
2.28025e-05
2.64119e-05
3.07366e-05
3.57432e-05
4.13884e-05
4.76193e-05
5.43738e-05
6.15804e-05
6.91596e-05
7.70246e-05
8.50825e-05
9.32355e-05
0.000101383
0.000109423
0.000117253
0.000124773
0.000131886
0.000138501
0.000144534
0.000149905
0.000154547
0.000158401
0.000161416
0.000163554
0.000164787
0.000165097
0.000164478
0.000162933
0.000160477
0.000157133
0.000152935
0.000147925
0.000142154
0.00013568
0.000128569
0.000120894
0.000112732
0.000104168
9.52879e-05
8.61845e-05
7.69512e-05
6.76839e-05
5.84791e-05
4.94331e-05
4.06411e-05
3.21962e-05
2.48015e-05
1.91046e-05
1.4631e-05
1.10096e-05
8.24212e-06
6.32361e-06
5.24236e-06
4.98023e-06
5.51274e-06
6.80917e-06
8.83268e-06
1.15405e-05
1.4884e-05
1.88093e-05
2.24895e-05
2.6112e-05
3.04504e-05
3.54713e-05
4.11313e-05
4.73775e-05
5.41476e-05
6.13704e-05
6.89661e-05
7.6848e-05
8.49231e-05
9.30938e-05
0.000101259
0.000109317
0.000117166
0.000124705
0.000131838
0.000138474
0.000144526
0.000149919
0.000154582
0.000158457
0.000161494
0.000163654
0.000164909
0.000165242
0.000164645
0.000163123
0.000160689
0.000157367
0.000153191
0.000148202
0.000142452
0.000135998
0.000128907
0.00012125
0.000113105
0.000104557
9.56922e-05
8.66022e-05
7.7381e-05
6.81242e-05
5.89283e-05
4.98895e-05
4.11031e-05
3.26623e-05
2.52681e-05
1.95675e-05
1.50879e-05
1.14592e-05
8.68322e-06
6.75512e-06
5.66328e-06
5.38966e-06
5.90988e-06
7.19331e-06
9.2032e-06
1.18968e-05
1.52257e-05
1.91361e-05
1.65232e-05
2.04572e-05
2.51889e-05
3.06836e-05
3.68955e-05
4.37677e-05
5.12323e-05
5.92108e-05
6.7615e-05
7.63479e-05
8.53053e-05
9.43774e-05
0.00010345
0.000112409
0.000121138
0.000129523
0.000137457
0.000144835
0.000151561
0.000157549
0.000162721
0.000167011
0.000170364
0.000172737
0.000174099
0.00017443
0.000173724
0.000171986
0.000169232
0.000165488
0.000160792
0.000155192
0.000148743
0.00014151
0.000133568
0.000124995
0.00011588
0.000106314
9.63948e-05
8.62244e-05
7.59072e-05
6.55499e-05
5.52601e-05
4.5145e-05
3.53107e-05
2.58608e-05
1.76232e-05
1.13579e-05
6.49282e-06
2.58195e-06
-3.76677e-07
-2.39214e-06
-3.48041e-06
-3.66416e-06
-2.97266e-06
-1.44175e-06
8.86255e-07
3.96264e-06
7.73248e-06
1.21351e-05
1.62e-05
2.01476e-05
2.48935e-05
3.0403e-05
3.66302e-05
4.35182e-05
5.0999e-05
5.89941e-05
6.74152e-05
7.61654e-05
8.51405e-05
9.42306e-05
0.000103322
0.000112299
0.000121047
0.000129453
0.000137406
0.000144805
0.000151552
0.000157562
0.000162756
0.000167068
0.000170444
0.00017284
0.000174225
0.00017458
0.000173897
0.000172183
0.000169452
0.000165732
0.000161059
0.000155481
0.000149055
0.000141844
0.000133922
0.000125369
0.000116272
0.000106723
9.68203e-05
8.66643e-05
7.636e-05
6.60139e-05
5.57334e-05
4.5626e-05
3.57975e-05
2.63517e-05
1.81143e-05
1.18446e-05
6.97252e-06
3.05331e-06
8.51069e-08
-1.94106e-06
-3.04103e-06
-3.23739e-06
-2.55931e-06
-1.04251e-06
1.2708e-06
4.33199e-06
8.08623e-06
1.24729e-05
9.80534e-06
1.40785e-05
1.92384e-05
2.52497e-05
3.20641e-05
3.96208e-05
4.7846e-05
5.66535e-05
6.59456e-05
7.56143e-05
8.55431e-05
9.56085e-05
0.000105683
0.000115635
0.000125336
0.000134657
0.000143476
0.000151676
0.00015915
0.0001658
0.00017154
0.000176297
0.000180008
0.000182628
0.000184122
0.00018447
0.000183665
0.000181713
0.000178632
0.000174453
0.000169217
0.000162977
0.000155796
0.000147746
0.000138907
0.000129368
0.000119225
0.00010858
9.75422e-05
8.62233e-05
7.47396e-05
6.32095e-05
5.17525e-05
4.04877e-05
2.9533e-05
1.90031e-05
9.86445e-06
3.0006e-06
-2.27063e-06
-6.47916e-06
-9.63142e-06
-1.17411e-05
-1.2829e-05
-1.29225e-05
-1.20561e-05
-1.02707e-05
-7.61443e-06
-4.14197e-06
8.51495e-08
4.99909e-06
9.47164e-06
1.3759e-05
1.89338e-05
2.49604e-05
3.17908e-05
3.93638e-05
4.76056e-05
5.64301e-05
6.57395e-05
7.5426e-05
8.53728e-05
9.54565e-05
0.000105549
0.000115521
0.000125241
0.000134583
0.000143422
0.000151643
0.000159139
0.000165811
0.000171574
0.000176354
0.000180089
0.000182733
0.000184252
0.000184624
0.000183844
0.000181917
0.000178861
0.000174707
0.000169496
0.00016328
0.000156123
0.000148095
0.000139278
0.00012976
0.000119637
0.000109011
9.799e-05
8.66865e-05
7.52165e-05
6.36983e-05
5.22511e-05
4.09944e-05
3.00457e-05
1.95199e-05
1.03812e-05
3.51205e-06
-1.76726e-06
-5.98526e-06
-9.14826e-06
-1.12698e-05
-1.23706e-05
-1.2478e-05
-1.16261e-05
-9.85603e-06
-7.21558e-06
-3.75941e-06
4.51075e-07
5.34811e-06
2.6509e-06
7.27587e-06
1.28837e-05
1.94387e-05
2.68905e-05
3.51744e-05
4.42104e-05
5.39043e-05
6.41482e-05
7.4822e-05
8.57954e-05
9.693e-05
0.000108082
0.000119105
0.000129852
0.00014018
0.00014995
0.000159033
0.000167307
0.000174665
0.00018101
0.000186262
0.000190352
0.00019323
0.000194859
0.000195217
0.000194299
0.00019211
0.000188674
0.000184023
0.000178204
0.000171277
0.000163309
0.00015438
0.000144579
0.000134004
0.00012276
0.00011096
9.87236e-05
8.61747e-05
7.34418e-05
6.06561e-05
4.79498e-05
3.54551e-05
2.33023e-05
1.16183e-05
1.52228e-06
-5.96762e-06
-1.1657e-05
-1.61692e-05
-1.95157e-05
-2.17157e-05
-2.27951e-05
-2.27865e-05
-2.17294e-05
-1.96703e-05
-1.66629e-05
-1.27679e-05
-8.0536e-06
-2.59514e-06
2.30671e-06
6.94655e-06
1.25699e-05
1.91408e-05
2.66091e-05
3.49097e-05
4.39629e-05
5.36742e-05
6.39359e-05
7.46277e-05
8.56195e-05
9.67728e-05
0.000107944
0.000118986
0.000129753
0.000140102
0.000149893
0.000158998
0.000167294
0.000174675
0.000181044
0.000186319
0.000190434
0.000193337
0.000194992
0.000195376
0.000194483
0.000192321
0.000188911
0.000184287
0.000178494
0.000171592
0.00016365
0.000154745
0.000144968
0.000134415
0.000123193
0.000111413
9.91946e-05
8.66622e-05
7.39439e-05
6.11707e-05
4.84749e-05
3.59886e-05
2.3842e-05
1.21621e-05
2.06559e-06
-5.43054e-06
-1.11292e-05
-1.5652e-05
-1.90106e-05
-2.12237e-05
-2.23172e-05
-2.23237e-05
-2.12825e-05
-1.924e-05
-1.62495e-05
-1.2372e-05
-7.67538e-06
-2.23484e-06
-4.93645e-06
5.10709e-08
6.12462e-06
1.32487e-05
2.13715e-05
3.04244e-05
4.03213e-05
5.09594e-05
6.22197e-05
7.39689e-05
8.60616e-05
9.83429e-05
0.000110651
0.000122822
0.000134692
0.000146098
0.000156886
0.000166912
0.00017604
0.00018415
0.000191136
0.00019691
0.000201397
0.000204542
0.000206306
0.000206667
0.000205619
0.000203172
0.000199349
0.00019419
0.000187745
0.00018008
0.00017127
0.000161403
0.000150576
0.000138896
0.000126478
0.000113446
9.99321e-05
8.6072e-05
7.20076e-05
5.78836e-05
4.38464e-05
3.00421e-05
1.66146e-05
3.7038e-06
-7.40361e-06
-1.5544e-05
-2.16605e-05
-2.64796e-05
-3.00192e-05
-3.23043e-05
-3.33665e-05
-3.32438e-05
-3.1981e-05
-2.963e-05
-2.62497e-05
-2.19072e-05
-1.66772e-05
-1.06424e-05
-5.29111e-06
-2.88036e-07
5.80164e-06
1.29423e-05
2.10822e-05
3.01524e-05
4.00669e-05
5.07228e-05
6.20012e-05
7.37687e-05
8.58801e-05
9.81804e-05
0.000110508
0.000122699
0.000134589
0.000146016
0.000156826
0.000166874
0.000176024
0.000184158
0.000191169
0.000196967
0.00020148
0.000204651
0.000206442
0.00020683
0.00020581
0.00020339
0.000199595
0.000194464
0.000188047
0.000180409
0.000171627
0.000161786
0.000150984
0.000139327
0.000126932
0.000113922
0.000100427
8.65848e-05
7.25359e-05
5.84252e-05
4.43991e-05
3.06035e-05
1.71824e-05
4.27562e-06
-6.83282e-06
-1.49804e-05
-2.11075e-05
-2.59386e-05
-2.94915e-05
-3.17911e-05
-3.28687e-05
-3.27625e-05
-3.15169e-05
-2.91837e-05
-2.58217e-05
-2.14977e-05
-1.62866e-05
-1.02707e-05
-1.29514e-05
-7.59293e-06
-1.03808e-06
6.67871e-06
1.55047e-05
2.53675e-05
3.61751e-05
4.78152e-05
6.01571e-05
7.30531e-05
8.63411e-05
9.9848e-05
0.000113393
0.000126792
0.00013986
0.000152417
0.00016429
0.000175318
0.000185351
0.000194257
0.000201919
0.00020824
0.00021314
0.00021656
0.000218458
0.000218813
0.000217618
0.000214887
0.000210647
0.000204941
0.000197827
0.000189376
0.00017967
0.000168806
0.000156888
0.000144034
0.00013037
0.000116031
0.000101161
8.59091e-05
7.04312e-05
5.4887e-05
3.94379e-05
2.42452e-05
9.4676e-06
-4.74101e-06
-1.69111e-05
-2.57226e-05
-3.22718e-05
-3.73983e-05
-4.11275e-05
-4.34911e-05
-4.45268e-05
-4.42783e-05
-4.27956e-05
-4.01356e-05
-3.63625e-05
-3.15491e-05
-2.57768e-05
-1.91354e-05
-1.33165e-05
-7.94173e-06
-1.37005e-06
6.36399e-06
1.52075e-05
2.50882e-05
3.59138e-05
4.75722e-05
5.99325e-05
7.28471e-05
8.61541e-05
9.96802e-05
0.000113245
0.000126664
0.000139752
0.00015233
0.000164226
0.000175276
0.000185333
0.000194263
0.00020195
0.000208297
0.000213224
0.000216671
0.000218597
0.00021898
0.000217814
0.000215112
0.000210901
0.000205225
0.000198141
0.000189718
0.000180042
0.000169205
0.000157314
0.000144486
0.000130847
0.000116531
0.000101681
8.64482e-05
7.09868e-05
5.54566e-05
4.00191e-05
2.48354e-05
1.00643e-05
-4.14029e-06
-1.63119e-05
-2.51319e-05
-3.1693e-05
-3.68329e-05
-4.05767e-05
-4.29562e-05
-4.40088e-05
-4.37782e-05
-4.23141e-05
-3.96731e-05
-3.59197e-05
-3.11262e-05
-2.53738e-05
-1.87525e-05
-2.13872e-05
-1.56517e-05
-8.60234e-06
-2.71329e-07
9.28823e-06
2.00009e-05
3.17682e-05
4.44683e-05
5.79576e-05
7.20728e-05
8.66334e-05
0.000101446
0.000116309
0.000131015
0.000145359
0.00015914
0.000172165
0.000184254
0.000195244
0.000204987
0.000213358
0.000220249
0.000225576
0.000229276
0.000231306
0.000231642
0.000230282
0.000227242
0.000222552
0.000216262
0.000208435
0.000199149
0.000188494
0.000176574
0.000163503
0.000149409
0.000134428
0.000118708
0.000102404
8.56801e-05
6.87076e-05
5.16617e-05
3.47204e-05
1.80616e-05
1.86011e-06
-1.37151e-05
-2.69956e-05
-3.6495e-05
-4.34784e-05
-4.89094e-05
-5.28222e-05
-5.52561e-05
-5.62555e-05
-5.58698e-05
-5.4154e-05
-5.11696e-05
-4.69858e-05
-4.16805e-05
-3.53413e-05
-2.80653e-05
-2.17626e-05
-1.60101e-05
-8.94312e-06
-5.9419e-07
8.98355e-06
1.97146e-05
3.15003e-05
4.4219e-05
5.77271e-05
7.18611e-05
8.64408e-05
0.000101273
0.000116155
0.000130882
0.000145247
0.000159049
0.000172096
0.000184209
0.000195222
0.000204991
0.000213387
0.000220305
0.00022566
0.000229388
0.000231447
0.000231813
0.000230483
0.000227473
0.000222815
0.000216556
0.000208761
0.000199505
0.000188881
0.000176991
0.000163949
0.000149883
0.000134928
0.000119232
0.00010295
8.62465e-05
6.92915e-05
5.22605e-05
3.53313e-05
1.86817e-05
2.48678e-06
-1.30846e-05
-2.63674e-05
-3.58765e-05
-4.28731e-05
-4.8319e-05
-5.2248e-05
-5.46992e-05
-5.5717e-05
-5.53506e-05
-5.36548e-05
-5.06909e-05
-4.65281e-05
-4.1244e-05
-3.4926e-05
-2.76711e-05
-3.02351e-05
-2.41195e-05
-1.6565e-05
-7.60057e-06
2.72119e-06
1.43222e-05
2.70977e-05
4.09157e-05
5.56189e-05
7.10264e-05
8.69379e-05
0.000103138
0.000119401
0.000135496
0.000151194
0.000166271
0.000180513
0.000193722
0.000205717
0.000216338
0.000225447
0.000232931
0.000238697
0.000242679
0.000244834
0.000245139
0.000243594
0.000240217
0.000235046
0.000228134
0.000219551
0.000209382
0.000197725
0.000184693
0.000170409
0.000155009
0.000138643