/*--------------------------------*- C++ -*----------------------------------*\
| =========                 |                                                 |
| \\      /  F ield         | OpenFOAM: The Open Source CFD Toolbox           |
|  \\    /   O peration     | Version:  5.x                                   |
|   \\  /    A nd           | Web:      www.OpenFOAM.org                      |
|    \\/     M anipulation  |                                                 |
\*---------------------------------------------------------------------------*/
FoamFile
{
    version     2.0;
    format      ascii;
    class       surfaceScalarField;
    location    "300/subsurface";
    object      phiSubMean;
}
// * * * * * * * * * * * * * * * * * * * * * * * * * * * * * * * * * * * * * //

dimensions      [0 3 -1 0 0 0 0];

internalField   nonuniform List<scalar> 
14220
(
1.61482e-10
1.57113e-11
1.46741e-10
1.47405e-11
1.33155e-10
1.35864e-11
1.20896e-10
1.22583e-11
1.10127e-10
1.0769e-11
1.00994e-10
9.13347e-12
9.36251e-11
7.3689e-12
8.81308e-11
5.49424e-12
8.46007e-11
3.53011e-12
8.31022e-11
1.49853e-12
8.36795e-11
-5.77368e-13
8.63532e-11
-2.67366e-12
9.11191e-11
-4.76594e-12
9.79487e-11
-6.82962e-12
1.06789e-10
-8.84034e-12
1.17563e-10
-1.07742e-11
1.30172e-10
-1.26083e-11
1.44492e-10
-1.43206e-11
1.60383e-10
-1.58909e-11
1.77683e-10
-1.73003e-11
1.96216e-10
-1.85321e-11
2.15787e-10
-1.95718e-11
2.36194e-10
-2.04068e-11
2.57222e-10
-2.10275e-11
2.78648e-10
-2.14262e-11
3.00246e-10
-2.15983e-11
3.21788e-10
-2.15415e-11
3.43044e-10
-2.12561e-11
3.63789e-10
-2.07451e-11
3.83803e-10
-2.00138e-11
4.02872e-10
-1.90699e-11
4.20796e-10
-1.79236e-11
4.37383e-10
-1.65868e-11
4.52457e-10
-1.50738e-11
4.65857e-10
-1.34006e-11
4.77442e-10
-1.15846e-11
4.87087e-10
-9.64491e-12
4.94689e-10
-7.60183e-12
5.00165e-10
-5.47666e-12
5.03457e-10
-3.29156e-12
5.04526e-10
-1.0693e-12
5.03359e-10
1.16696e-12
4.99965e-10
3.39386e-12
4.94377e-10
5.58816e-12
4.8665e-10
7.72695e-12
4.7686e-10
9.79035e-12
4.61123e-10
1.57363e-11
4.41606e-10
1.95177e-11
4.20881e-10
2.07248e-11
3.99164e-10
2.17166e-11
3.76678e-10
2.24866e-11
3.53647e-10
2.30303e-11
3.30302e-10
2.33457e-11
3.06868e-10
2.34334e-11
2.83572e-10
2.32962e-11
2.60633e-10
2.29392e-11
2.38263e-10
2.23701e-11
2.16664e-10
2.15985e-11
1.96028e-10
2.06362e-11
1.76529e-10
1.94995e-11
1.60769e-10
1.57598e-11
1.45981e-10
1.47873e-11
1.3235e-10
1.36314e-11
1.20049e-10
1.23014e-11
1.09239e-10
1.08102e-11
1.00066e-10
9.17267e-12
9.26598e-11
7.40604e-12
8.71305e-11
5.52925e-12
8.35676e-11
3.56295e-12
8.20384e-11
1.52913e-12
8.25875e-11
-5.49068e-13
8.52352e-11
-2.64773e-12
8.99777e-11
-4.74244e-12
9.67863e-11
-6.80864e-12
1.05608e-10
-8.82195e-12
1.16367e-10
-1.07585e-11
1.28962e-10
-1.25953e-11
1.43273e-10
-1.43106e-11
1.59156e-10
-1.58838e-11
1.76453e-10
-1.72963e-11
1.94984e-10
-1.85313e-11
2.14558e-10
-1.95742e-11
2.34971e-10
-2.04126e-11
2.56008e-10
-2.10367e-11
2.77446e-10
-2.1439e-11
2.99061e-10
-2.16147e-11
3.20623e-10
-2.15615e-11
3.41902e-10
-2.12798e-11
3.62675e-10
-2.07725e-11
3.8272e-10
-2.00449e-11
4.01825e-10
-1.91048e-11
4.19787e-10
-1.79621e-11
4.36416e-10
-1.66289e-11
4.51535e-10
-1.51195e-11
4.64985e-10
-1.34496e-11
4.76622e-10
-1.16368e-11
4.86322e-10
-9.70028e-12
4.93982e-10
-7.66013e-12
4.9952e-10
-5.53769e-12
5.02875e-10
-3.35511e-12
5.0401e-10
-1.13514e-12
5.02911e-10
1.09907e-12
4.99587e-10
3.32419e-12
4.9407e-10
5.51697e-12
4.86415e-10
7.6545e-12
4.76698e-10
9.71692e-12
4.61036e-10
1.56621e-11
4.41592e-10
1.94444e-11
4.20939e-10
2.06532e-11
3.99292e-10
2.16471e-11
3.76872e-10
2.24193e-11
3.53907e-10
2.29655e-11
3.30623e-10
2.32837e-11
3.07249e-10
2.33743e-11
2.84008e-10
2.32402e-11
2.61122e-10
2.28865e-11
2.38801e-10
2.23208e-11
2.17248e-10
2.15527e-11
1.96654e-10
2.05941e-11
1.94612e-11
1.52474e-10
3.13474e-11
1.37795e-10
2.94197e-11
1.24254e-10
2.71269e-11
1.12028e-10
2.44848e-11
1.01277e-10
2.15191e-11
9.2151e-11
1.82598e-11
8.47786e-11
1.47412e-11
7.92717e-11
1.10012e-11
7.57209e-11
7.08088e-12
7.4195e-11
3.02447e-12
7.47393e-11
-1.12174e-12
7.73754e-11
-5.30975e-12
8.21e-11
-9.49056e-12
8.88853e-11
-1.36149e-11
9.76786e-11
-1.76337e-11
1.08403e-10
-2.14991e-11
1.2096e-10
-2.51649e-11
1.35227e-10
-2.85871e-11
1.51061e-10
-3.17249e-11
1.68301e-10
-3.45406e-11
1.86769e-10
-3.70005e-11
2.06273e-10
-3.90755e-11
2.26607e-10
-4.07408e-11
2.47556e-10
-4.19765e-11
2.68898e-10
-4.2768e-11
2.90405e-10
-4.31056e-11
3.11849e-10
-4.2985e-11
3.32999e-10
-4.2407e-11
3.53632e-10
-4.13775e-11
3.73525e-10
-3.99074e-11
3.92468e-10
-3.80122e-11
4.10256e-10
-3.57122e-11
4.26701e-10
-3.30318e-11
4.41627e-10
-2.99992e-11
4.54873e-10
-2.66466e-11
4.66297e-10
-2.30091e-11
4.75777e-10
-1.9125e-11
4.8321e-10
-1.50347e-11
4.88515e-10
-1.0781e-11
4.91631e-10
-6.40828e-12
4.92524e-10
-1.96207e-12
4.9118e-10
2.51122e-12
4.87609e-10
6.96481e-12
4.81845e-10
1.1352e-11
4.73946e-10
1.56263e-11
4.63985e-10
1.97512e-11
4.48169e-10
3.15519e-11
4.28671e-10
3.90158e-11
4.08032e-10
4.1364e-11
3.86461e-10
4.32871e-11
3.64178e-10
4.47699e-11
3.41404e-10
4.58046e-11
3.18361e-10
4.63882e-11
2.95273e-10
4.65222e-11
2.72356e-10
4.62129e-11
2.49824e-10
4.54712e-11
2.27882e-10
4.43123e-11
2.06724e-10
4.2756e-11
1.86534e-10
4.08262e-11
1.67466e-10
3.8568e-11
1.51783e-10
3.14429e-11
1.37058e-10
2.95118e-11
1.23474e-10
2.72154e-11
1.11206e-10
2.45696e-11
1.00416e-10
2.16001e-11
9.12515e-11
1.83369e-11
8.38433e-11
1.48143e-11
7.83025e-11
1.107e-11
7.472e-11
7.14544e-12
7.31645e-11
3.08464e-12
7.36815e-11
-1.06608e-12
7.62925e-11
-5.25873e-12
8.09944e-11
-9.44432e-12
8.77593e-11
-1.35735e-11
9.65347e-11
-1.75974e-11
1.07244e-10
-2.14681e-11
1.19788e-10
-2.51393e-11
1.34045e-10
-2.85672e-11
1.49872e-10
-3.17108e-11
1.67108e-10
-3.45325e-11
1.85576e-10
-3.69988e-11
2.05082e-10
-3.90802e-11
2.25421e-10
-4.07521e-11
2.46379e-10
-4.19946e-11
2.67733e-10
-4.27931e-11
2.89256e-10
-4.31378e-11
3.10719e-10
-4.30244e-11
3.31893e-10
-4.24537e-11
3.52552e-10
-4.14316e-11
3.72476e-10
-3.99688e-11
3.91452e-10
-3.8081e-11
4.09279e-10
-3.57882e-11
4.25764e-10
-3.31149e-11
4.40734e-10
-3.00893e-11
4.54028e-10
-2.67434e-11
4.65504e-10
-2.31125e-11
4.75038e-10
-1.92344e-11
4.82528e-10
-1.515e-11
4.87892e-10
-1.09017e-11
4.91071e-10
-6.53395e-12
4.92028e-10
-2.09226e-12
4.9075e-10
2.377e-12
4.87247e-10
6.82708e-12
4.81553e-10
1.12112e-11
4.73724e-10
1.54832e-11
4.63835e-10
1.96061e-11
4.48091e-10
3.14056e-11
4.28664e-10
3.88717e-11
4.08094e-10
4.12234e-11
3.86591e-10
4.31504e-11
3.64372e-10
4.46378e-11
3.4166e-10
4.56775e-11
3.18677e-10
4.62666e-11
2.95645e-10
4.64064e-11
2.72782e-10
4.61033e-11
2.50301e-10
4.53681e-11
2.28406e-10
4.4216e-11
2.07292e-10
4.26667e-11
1.87142e-10
4.0744e-11
3.84931e-11
1.41471e-10
4.73389e-11
1.26444e-10
4.44463e-11
1.12563e-10
4.10083e-11
1.00008e-10
3.70398e-11
8.89479e-11
3.25792e-11
7.95362e-11
2.76715e-11
7.19092e-11
2.23682e-11
6.6184e-11
1.67264e-11
6.24564e-11
1.08085e-11
6.07996e-11
4.68117e-12
6.12631e-11
-1.58523e-12
6.38712e-11
-7.91783e-12
6.86228e-11
-1.42421e-11
7.54909e-11
-2.0483e-11
8.44231e-11
-2.65659e-11
9.53419e-11
-3.24178e-11
1.08145e-10
-3.79683e-11
1.22709e-10
-4.31505e-11
1.38886e-10
-4.79019e-11
1.56511e-10
-5.21654e-11
1.754e-10
-5.58897e-11
1.95354e-10
-5.90303e-11
2.16163e-10
-6.15497e-11
2.37605e-10
-6.34178e-11
2.59449e-10
-6.46123e-11
2.81462e-10
-6.51188e-11
3.03408e-10
-6.49306e-11
3.2505e-10
-6.40493e-11
3.46156e-10
-6.24838e-11
3.665e-10
-6.02508e-11
3.85861e-10
-5.7374e-11
4.04033e-10
-5.38841e-11
4.2082e-10
-4.98183e-11
4.3604e-10
-4.52195e-11
4.4953e-10
-4.01362e-11
4.61143e-10
-3.46219e-11
4.70752e-10
-2.87344e-11
4.78252e-10
-2.25351e-11
4.8356e-10
-1.60887e-11
4.86614e-10
-9.46224e-12
4.87377e-10
-2.72474e-12
4.85834e-10
4.05361e-12
4.81997e-10
1.0802e-11
4.75899e-10
1.74498e-11
4.67599e-10
2.39269e-11
4.57164e-10
3.01856e-11
4.40768e-10
4.79478e-11
4.20682e-10
5.91025e-11
3.9951e-10
6.25361e-11
3.7746e-10
6.53363e-11
3.54756e-10
6.74744e-11
3.3162e-10
6.89405e-11
3.08277e-10
6.97314e-11
2.84948e-10
6.9851e-11
2.61851e-10
6.93101e-11
2.39196e-10
6.81259e-11
2.17186e-10
6.63226e-11
1.96011e-10
6.39304e-11
1.75852e-10
6.09858e-11
1.56833e-10
5.75866e-11
1.40796e-10
4.74801e-11
1.25725e-10
4.45824e-11
1.11802e-10
4.11391e-11
9.92063e-11
3.71651e-11
8.81076e-11
3.26988e-11
7.86592e-11
2.77853e-11
7.09975e-11
2.2476e-11
6.52394e-11
1.6828e-11
6.1481e-11
1.09038e-11
5.97956e-11
4.77003e-12
6.02325e-11
-1.503e-12
6.28162e-11
-7.84241e-12
6.75456e-11
-1.41737e-11
7.43938e-11
-2.04218e-11
8.33085e-11
-2.65122e-11
9.42122e-11
-3.23718e-11
1.07003e-10
-3.79303e-11
1.21557e-10
-4.31208e-11
1.37727e-10
-4.78808e-11
1.55347e-10
-5.21531e-11
1.74235e-10
-5.58867e-11
1.94192e-10
-5.90368e-11
2.15006e-10
-6.1566e-11
2.36455e-10
-6.34442e-11
2.58311e-10
-6.46491e-11
2.8034e-10
-6.51661e-11
3.02304e-10
-6.49887e-11
3.23968e-10
-6.41183e-11
3.45101e-10
-6.25637e-11
3.65473e-10
-6.03417e-11
3.84868e-10
-5.74759e-11
4.03077e-10
-5.39969e-11
4.19904e-10
-4.99417e-11
4.35168e-10
-4.53533e-11
4.48704e-10
-4.02801e-11
4.60367e-10
-3.47755e-11
4.7003e-10
-2.88972e-11
4.77587e-10
-2.27066e-11
4.82953e-10
-1.62683e-11
4.86069e-10
-9.64926e-12
4.86895e-10
-2.9185e-12
4.85418e-10
3.85385e-12
4.81648e-10
1.0597e-11
4.75619e-10
1.72404e-11
4.67388e-10
2.37138e-11
4.57025e-10
2.99698e-11
4.40699e-10
4.77308e-11
4.20682e-10
5.8889e-11
3.99577e-10
6.2328e-11
3.77593e-10
6.51343e-11
3.54952e-10
6.72793e-11
3.31877e-10
6.87529e-11
3.08591e-10
6.9552e-11
2.85317e-10
6.96805e-11
2.62272e-10
6.91488e-11
2.39665e-10
6.79743e-11
2.177e-10
6.61811e-11
1.96568e-10
6.37993e-11
1.76446e-10
6.08653e-11
5.74768e-11
1.28891e-10
6.40393e-11
1.13179e-10
6.01587e-11
9.86346e-11
5.55523e-11
8.54506e-11
5.02238e-11
7.38058e-11
4.42239e-11
6.38643e-11
3.76131e-11
5.57723e-11
3.04602e-11
4.96564e-11
2.28423e-11
4.56211e-11
1.48437e-11
4.37472e-11
6.55504e-12
4.40902e-11
-1.92826e-12
4.66792e-11
-1.05068e-11
5.15161e-11
-1.9079e-11
5.85754e-11
-2.75423e-11
6.78043e-11
-3.57947e-11
7.91228e-11
-4.37364e-11
9.24255e-11
-5.1271e-11
1.07582e-10
-5.8307e-11
1.24439e-10
-6.47589e-11
1.42822e-10
-7.05487e-11
1.62539e-10
-7.56064e-11
1.8338e-10
-7.98712e-11
2.05122e-10
-8.32919e-11
2.27532e-10
-8.58276e-11
2.50367e-10
-8.7448e-11
2.73382e-10
-8.81336e-11
2.96327e-10
-8.78756e-11
3.18954e-10
-8.66761e-11
3.41018e-10
-8.45476e-11
3.6228e-10
-8.15127e-11
3.8251e-10
-7.76039e-11
4.01488e-10
-7.28629e-11
4.1901e-10
-6.73402e-11
4.34885e-10
-6.10943e-11
4.4894e-10
-5.4191e-11
4.61021e-10
-4.67027e-11
4.70994e-10
-3.87078e-11
4.78749e-10
-3.02896e-11
4.84196e-10
-2.15356e-11
4.8727e-10
-1.25368e-11
4.87932e-10
-3.38657e-12
4.86166e-10
5.8201e-12
4.8198e-10
1.49874e-11
4.7541e-10
2.40195e-11
4.66516e-10
3.28217e-11
4.55359e-10
4.13424e-11
4.37969e-10
6.53375e-11
4.16791e-10
8.02808e-11
3.94576e-10
8.47505e-11
3.71535e-10
8.83779e-11
3.47897e-10
9.11124e-11
3.23894e-10
9.29433e-11
2.99756e-10
9.3869e-11
2.7571e-10
9.38972e-11
2.51976e-10
9.30442e-11
2.28766e-10
9.13354e-11
2.06284e-10
8.88046e-11
1.84721e-10
8.54938e-11
1.64254e-10
8.14532e-11
1.44973e-10
7.68674e-11
1.28228e-10
6.42251e-11
1.12473e-10
6.03377e-11
9.78875e-11
5.57243e-11
8.46642e-11
5.03884e-11
7.29819e-11
4.43811e-11
6.30047e-11
3.77625e-11
5.4879e-11
3.06017e-11
4.87313e-11
2.29758e-11
4.46661e-11
1.4969e-11
4.27643e-11
6.67182e-12
4.30814e-11
-1.8201e-12
4.56465e-11
-1.04075e-11
5.04617e-11
-1.89888e-11
5.75014e-11
-2.74615e-11
6.67128e-11
-3.57236e-11
7.80164e-11
-4.36754e-11
9.13064e-11
-5.12204e-11
1.06453e-10
-5.82672e-11
1.23302e-10
-6.47303e-11
1.41681e-10
-7.05318e-11
1.61396e-10
-7.56016e-11
1.82238e-10
-7.98789e-11
2.03984e-10
-8.33125e-11
2.26402e-10
-8.58615e-11
2.49248e-10
-8.74956e-11
2.72277e-10
-8.81952e-11
2.9524e-10
-8.79516e-11
3.17889e-10
-8.67665e-11
3.39977e-10
-8.46526e-11
3.61268e-10
-8.16323e-11
3.8153e-10
-7.77382e-11
4.00545e-10
-7.30117e-11
4.18107e-10
-6.75033e-11
4.34025e-10
-6.12713e-11
4.48126e-10
-5.43815e-11
4.60257e-10
-4.69062e-11
4.70283e-10
-3.89236e-11
4.78094e-10
-3.0517e-11
4.83599e-10
-2.17739e-11
4.86735e-10
-1.2785e-11
4.8746e-10
-3.64373e-12
4.85759e-10
5.55495e-12
4.81641e-10
1.47153e-11
4.7514e-10
2.37416e-11
4.66314e-10
3.2539e-11
4.55228e-10
4.1056e-11
4.37908e-10
6.50506e-11
4.16799e-10
7.99989e-11
3.94651e-10
8.44759e-11
3.71673e-10
8.81117e-11
3.48097e-10
9.08555e-11
3.24153e-10
9.26966e-11
3.00072e-10
9.36334e-11
2.76079e-10
9.36734e-11
2.52395e-10
9.28329e-11
2.29232e-10
9.11371e-11
2.06793e-10
8.86196e-11
1.8527e-10
8.53226e-11
1.64839e-10
8.12961e-11
7.67245e-11
1.15059e-10
8.17459e-11
9.83756e-11
7.68425e-11
8.28963e-11
7.10316e-11
6.88276e-11
6.42924e-11
5.63634e-11
5.66882e-11
4.56821e-11
4.82944e-11
3.69439e-11
3.91984e-11
3.02884e-11
2.94978e-11
2.5832e-11
1.93002e-11
2.36655e-11
8.72145e-12
2.3853e-11
-2.11574e-12
2.64298e-11
-1.30836e-11
3.14018e-11
-2.40511e-11
3.87453e-11
-3.48858e-11
4.84065e-11
-4.54559e-11
6.03024e-11
-5.56324e-11
7.43219e-11
-6.52905e-11
9.03268e-11
-7.43119e-11
1.08154e-10
-8.25861e-11
1.27617e-10
-9.00122e-11
1.48511e-10
-9.64999e-11
1.70611e-10
-1.01971e-10
1.93678e-10
-1.06359e-10
2.17462e-10
-1.09612e-10
2.41706e-10
-1.11691e-10
2.66143e-10
-1.12571e-10
2.90509e-10
-1.12242e-10
3.14538e-10
-1.10705e-10
3.37967e-10
-1.07977e-10
3.60542e-10
-1.04087e-10
3.82016e-10
-9.90783e-11
4.02156e-10
-9.3003e-11
4.20742e-10
-8.59262e-11
4.37571e-10
-7.79229e-11
4.52457e-10
-6.90772e-11
4.65236e-10
-5.9482e-11
4.75766e-10
-4.92372e-11
4.83926e-10
-3.84494e-11
4.8962e-10
-2.72303e-11
4.9278e-10
-1.56962e-11
4.93359e-10
-3.96609e-12
4.91341e-10
7.83854e-12
4.86733e-10
1.95955e-11
4.7957e-10
3.11825e-11
4.69913e-10
4.24786e-11
4.57818e-10
5.34368e-11
4.39078e-10
8.40781e-11
4.16376e-10
1.02983e-10
3.92686e-10
1.0844e-10
3.68219e-10
1.12845e-10
3.43217e-10
1.16113e-10
3.17926e-10
1.18235e-10
2.92583e-10
1.19212e-10
2.67424e-10
1.19056e-10
2.42675e-10
1.17793e-10
2.18555e-10
1.15456e-10
1.95268e-10
1.12091e-10
1.73009e-10
1.07753e-10
1.51956e-10
1.02507e-10
1.32154e-10
9.66689e-11
1.14404e-10
8.19752e-11
9.76789e-11
7.70632e-11
8.21596e-11
7.12436e-11
6.80527e-11
6.44953e-11
5.55521e-11
5.68817e-11
4.48361e-11
4.84785e-11
3.60652e-11
3.93727e-11
2.93788e-11
2.96622e-11
2.48932e-11
1.94545e-11
2.26996e-11
8.86547e-12
2.28617e-11
-1.98223e-12
2.5415e-11
-1.29609e-11
3.03656e-11
-2.39394e-11
3.76896e-11
-3.47855e-11
4.73334e-11
-4.53675e-11
5.92142e-11
-5.55562e-11
7.32208e-11
-6.5227e-11
8.92151e-11
-7.42615e-11
1.07034e-10
-8.25495e-11
1.26492e-10
-8.99899e-11
1.47383e-10
-9.64925e-11
1.69483e-10
-1.01979e-10
1.92554e-10
-1.06383e-10
2.16345e-10
-1.09653e-10
2.40598e-10
-1.11749e-10
2.6505e-10
-1.12646e-10
2.89432e-10
-1.12334e-10
3.13481e-10
-1.10816e-10
3.36935e-10
-1.08106e-10
3.59538e-10
-1.04235e-10
3.81044e-10
-9.92443e-11
4.01219e-10
-9.31873e-11
4.19845e-10
-8.61285e-11
4.36716e-10
-7.81427e-11
4.51649e-10
-6.93141e-11
4.64478e-10
-5.97352e-11
4.7506e-10
-4.9506e-11
4.83276e-10
-3.87328e-11
4.8903e-10
-2.75274e-11
4.9225e-10
-1.60058e-11
4.92894e-10
-4.28703e-12
4.90941e-10
7.5076e-12
4.864e-10
1.92559e-11
4.79306e-10
3.08356e-11
4.6972e-10
4.21259e-11
4.57696e-10
5.30795e-11
4.39025e-10
8.37214e-11
4.16391e-10
1.02633e-10
3.92768e-10
1.081e-10
3.68364e-10
1.12516e-10
3.43424e-10
1.15796e-10
3.1819e-10
1.1793e-10
2.92903e-10
1.18921e-10
2.67795e-10
1.18781e-10
2.43095e-10
1.17533e-10
2.1902e-10
1.15213e-10
1.95775e-10
1.11864e-10
1.73554e-10
1.07543e-10
1.52536e-10
1.02315e-10
9.64945e-11
1.00236e-10
1.00712e-10
8.23368e-11
9.47421e-11
6.56873e-11
8.76811e-11
5.05123e-11
7.94674e-11
3.70239e-11
7.01766e-11
2.54187e-11
5.98996e-11
1.58746e-11
4.87425e-11
8.54753e-12
3.68249e-11
3.56858e-12
2.42791e-11
1.04165e-12
1.12484e-11
1.04115e-12
-2.11524e-12
3.61033e-12
-1.56528e-11
8.76018e-12
-2.92009e-11
1.64688e-11
-4.25944e-11
2.66812e-11
-5.56684e-11
3.93104e-11
-6.82615e-11
5.42377e-11
-8.02178e-11
7.13151e-11
-9.13893e-11
9.03668e-11
-1.01638e-10
1.11192e-10
-1.10837e-10
1.33568e-10
-1.18875e-10
1.57251e-10
-1.25654e-10
1.81984e-10
-1.31092e-10
2.07496e-10
-1.35124e-10
2.33507e-10
-1.37702e-10
2.59731e-10
-1.38795e-10
2.85881e-10
-1.38391e-10
3.11668e-10
-1.36492e-10
3.36811e-10
-1.3312e-10
3.61035e-10
-1.28311e-10
3.84073e-10
-1.22117e-10
4.05675e-10
-1.14604e-10
4.25602e-10
-1.05853e-10
4.43635e-10
-9.59564e-11
4.59576e-10
-8.50177e-11
4.73245e-10
-7.31515e-11
4.84489e-10
-6.04812e-11
4.93178e-10
-4.71381e-11
4.99208e-10
-3.32598e-11
5.02501e-10
-1.89895e-11
5.03009e-10
-4.47382e-12
5.00709e-10
1.01378e-11
4.9561e-10
2.46947e-11
4.87746e-10
3.90467e-11
4.7718e-10
5.30447e-11
4.6396e-10
6.66565e-11
4.43556e-10
1.04483e-10
4.18953e-10
1.27585e-10
3.93415e-10
1.33978e-10
3.67151e-10
1.39109e-10
3.40422e-10
1.42843e-10
3.13486e-10
1.45172e-10
2.86593e-10
1.46104e-10
2.59989e-10
1.4566e-10
2.33911e-10
1.43872e-10
2.08582e-10
1.40785e-10
1.84214e-10
1.36459e-10
1.61005e-10
1.30962e-10
1.39134e-10
1.24377e-10
1.18595e-10
1.17208e-10
9.95867e-11
1.00984e-10
8.16464e-11
9.50035e-11
6.4958e-11
8.7932e-11
4.97458e-11
7.97074e-11
3.6222e-11
7.04055e-11
2.45833e-11
6.01172e-11
1.50074e-11
4.89486e-11
7.65023e-12
3.70193e-11
2.64296e-12
2.44618e-11
8.94488e-14
1.1419e-11
6.41036e-14
-1.95689e-12
2.61021e-12
-1.5507e-11
7.73879e-12
-2.9068e-11
1.5428e-11
-4.24747e-11
2.56229e-11
-5.55625e-11
3.82366e-11
-6.81698e-11
5.31506e-11
-8.0141e-11
7.02169e-11
-9.13278e-11
8.92599e-11
-1.01592e-10
1.10079e-10
-1.10809e-10
1.32451e-10
-1.18865e-10
1.56134e-10
-1.25662e-10
1.80869e-10
-1.31119e-10
2.06387e-10
-1.3517e-10
2.32407e-10
-1.37769e-10
2.58643e-10
-1.38883e-10
2.84808e-10
-1.385e-10
3.10615e-10
-1.36623e-10
3.35782e-10
-1.33273e-10
3.60033e-10
-1.28486e-10
3.83102e-10
-1.22314e-10
4.04739e-10
-1.14824e-10
4.24704e-10
-1.06094e-10
4.42781e-10
-9.62189e-11
4.58768e-10
-8.5301e-11
4.72487e-10
-7.34547e-11
4.83784e-10
-6.08034e-11
4.9253e-10
-4.74781e-11
4.98619e-10
-3.36165e-11
5.01974e-10
-1.93613e-11
5.02547e-10
-4.85934e-12
5.00314e-10
9.74015e-12
4.95283e-10
2.42867e-11
4.87489e-10
3.863e-11
4.76994e-10
5.2621e-11
4.63846e-10
6.62275e-11
4.43511e-10
1.04056e-10
4.18977e-10
1.27167e-10
3.93505e-10
1.33571e-10
3.67305e-10
1.38716e-10
3.40636e-10
1.42464e-10
3.13757e-10
1.4481e-10
2.86918e-10
1.4576e-10
2.60365e-10
1.45333e-10
2.34334e-10
1.43564e-10
2.09049e-10
1.40498e-10
1.84721e-10
1.36192e-10
1.61549e-10
1.30716e-10
1.39712e-10
1.24152e-10
1.17003e-10
8.46361e-11
1.21156e-10
6.53088e-11
1.14069e-10
4.72838e-11
1.05706e-10
3.08071e-11
9.59441e-11
1.61129e-11
8.48708e-11
3.41937e-12
7.25931e-11
-7.07447e-12
5.92363e-11
-1.5193e-11
4.49434e-11
-2.07872e-11
2.98733e-11
-2.37376e-11
1.41988e-11
-2.39571e-11
-1.89569e-12
-2.13931e-11
-1.82168e-11
-1.60286e-11
-3.45654e-11
-7.88342e-12
-5.07396e-11
2.98617e-12
-6.6538e-11
1.64876e-11
-8.1763e-11
3.24936e-11
-9.62238e-11
5.08436e-11
-1.09739e-10
7.13468e-11
-1.22141e-10
9.37843e-11
-1.33275e-10
1.17913e-10
-1.43004e-10
1.43468e-10
-1.51209e-10
1.70168e-10
-1.57792e-10
1.97717e-10
-1.62673e-10
2.2581e-10
-1.65796e-10
2.54137e-10
-1.67122e-10
2.82384e-10
-1.66638e-10
3.1024e-10
-1.64348e-10
3.37397e-10
-1.60277e-10
3.63558e-10
-1.54471e-10
3.88434e-10
-1.46993e-10
4.11751e-10
-1.37922e-10
4.33254e-10
-1.27356e-10
4.52705e-10
-1.15407e-10
4.69887e-10
-1.02199e-10
4.84606e-10
-8.78713e-11
4.96696e-10
-7.25712e-11
5.06015e-10
-5.64569e-11
5.12449e-10
-3.96939e-11
5.15914e-10
-2.2454e-11
5.16354e-10
-4.9139e-12
5.13745e-10
1.27471e-11
5.08091e-10
3.03482e-11
4.99429e-10
4.77086e-11
4.87824e-10
6.46496e-11
4.73315e-10
8.11662e-11
4.5097e-10
1.26827e-10
4.24135e-10
1.5442e-10
3.96425e-10
1.61688e-10
3.68046e-10
1.67488e-10
3.39277e-10
1.71611e-10
3.10392e-10
1.74057e-10
2.81658e-10
1.74839e-10
2.5333e-10
1.73987e-10
2.25657e-10
1.71545e-10
1.9887e-10
1.67572e-10
1.73189e-10
1.6214e-10
1.48816e-10
1.55335e-10
1.25935e-10
1.47258e-10
1.04475e-10
1.38667e-10
8.39894e-11
1.2147e-10
6.46224e-11
1.14371e-10
4.65595e-11
1.05995e-10
3.00468e-11
9.62202e-11
1.53182e-11
8.5134e-11
2.59217e-12
7.28432e-11
-7.93252e-12
5.94732e-11
-1.60802e-11
4.5167e-11
-2.17019e-11
3.00835e-11
-2.46783e-11
1.43953e-11
-2.49222e-11
-1.71299e-12
-2.23809e-11
-1.80482e-11
-1.70376e-11
-3.44113e-11
-8.91183e-12
-5.06005e-11
1.94004e-12
-6.64143e-11
1.54256e-11
-8.16554e-11
3.14176e-11
-9.6133e-11
4.97558e-11
-1.09666e-10
7.02494e-11
-1.22086e-10
9.26796e-11
-1.33239e-10
1.16803e-10
-1.42988e-10
1.42357e-10
-1.51215e-10
1.69057e-10
-1.5782e-10
1.96611e-10
-1.62724e-10
2.24712e-10
-1.6587e-10
2.5305e-10
-1.67221e-10
2.81312e-10
-1.66761e-10
3.09186e-10
-1.64497e-10
3.36366e-10
-1.60452e-10
3.62553e-10
-1.54673e-10
3.87459e-10
-1.4722e-10
4.10811e-10
-1.38176e-10
4.32353e-10
-1.27636e-10
4.51846e-10
-1.15712e-10
4.69074e-10
-1.02529e-10
4.83845e-10
-8.82249e-11
4.95989e-10
-7.29474e-11
5.05365e-10
-5.68543e-11
5.11859e-10
-4.0111e-11
5.15387e-10
-2.28892e-11
5.15893e-10
-5.36525e-12
5.13352e-10
1.22815e-11
5.07768e-10
2.98704e-11
4.99177e-10
4.72207e-11
4.87645e-10
6.41536e-11
4.73208e-10
8.06642e-11
4.50935e-10
1.26329e-10
4.24169e-10
1.53933e-10
3.96525e-10
1.61215e-10
3.68209e-10
1.67032e-10
3.395e-10
1.71173e-10
3.10672e-10
1.73638e-10
2.81991e-10
1.74441e-10
2.53713e-10
1.73611e-10
2.26086e-10
1.71192e-10
1.99342e-10
1.67242e-10
1.73699e-10
1.61834e-10
1.49361e-10
1.55054e-10
1.26512e-10
1.47001e-10
1.38435e-10
6.84396e-11
1.43268e-10
4.74992e-11
1.3501e-10
2.79172e-11
1.25288e-10
9.9646e-12
1.13897e-10
-6.09926e-12
1.00935e-10
-2.00307e-11
8.65245e-11
-3.16062e-11
7.08118e-11
-4.0627e-11
5.39642e-11
-4.69229e-11
3.61693e-11
-5.03565e-11
1.76323e-11
-5.08256e-11
-1.4266e-12
-4.82664e-11
-2.07759e-11
-4.26553e-11
-4.01765e-11
-3.40094e-11
-5.93855e-11
-2.23871e-11
-7.81603e-11
-7.88724e-12
-9.62628e-11
9.35212e-12
-1.13463e-10
2.91562e-11
-1.29543e-10
5.13159e-11
-1.44301e-10
7.55914e-11
-1.5755e-10
1.01716e-10
-1.69128e-10
1.294e-10
-1.78893e-10
1.58333e-10
-1.86726e-10
1.88194e-10
-1.92534e-10
2.18648e-10
-1.9625e-10
2.49355e-10
-1.9783e-10
2.79975e-10
-1.97258e-10
3.10167e-10
-1.9454e-10
3.39598e-10
-1.89708e-10
3.67943e-10
-1.82816e-10
3.9489e-10
-1.73939e-10
4.20142e-10
-1.63174e-10
4.4342e-10
-1.50634e-10
4.64466e-10
-1.36453e-10
4.83046e-10
-1.20779e-10
4.98949e-10
-1.03775e-10
5.11993e-10
-8.56155e-11
5.22024e-10
-6.64879e-11
5.28918e-10
-4.65874e-11
5.32581e-10
-2.61171e-11
5.32952e-10
-5.28521e-12
5.30003e-10
1.56963e-11
5.23737e-10
3.6614e-11
5.14191e-10
5.72547e-11
5.01433e-10
7.74075e-11
4.85489e-10
9.71099e-11
4.6096e-10
1.51357e-10
4.31599e-10
1.83781e-10
4.01434e-10
1.91854e-10
3.70664e-10
1.98258e-10
3.39589e-10
2.02687e-10
3.08499e-10
2.05147e-10
2.77675e-10
2.05662e-10
2.47389e-10
2.04273e-10
2.17898e-10
2.01037e-10
1.89444e-10
1.96026e-10
1.62255e-10
1.89329e-10
1.36538e-10
1.81051e-10
1.12484e-10
1.71312e-10
8.99467e-11
1.61205e-10
6.77941e-11
1.43622e-10
4.6815e-11
1.3535e-10
2.71962e-11
1.25614e-10
9.20861e-12
1.14208e-10
-6.88845e-12
1.01231e-10
-2.08513e-11
8.68061e-11
-3.24567e-11
7.10786e-11
-4.15057e-11
5.42161e-11
-4.78284e-11
3.64062e-11
-5.12872e-11
1.78541e-11
-5.17802e-11
-1.22004e-12
-4.92435e-11
-2.05849e-11
-4.36534e-11
-4.00014e-11
-3.50271e-11
-5.92268e-11
-2.34228e-11
-7.80186e-11
-8.93938e-12
-9.61388e-11
8.28531e-12
-1.13358e-10
2.80766e-11
-1.29457e-10
5.02256e-11
-1.44235e-10
7.44928e-11
-1.57506e-10
1.00611e-10
-1.69107e-10
1.28292e-10
-1.78895e-10
1.57225e-10
-1.86753e-10
1.87088e-10
-1.92587e-10
2.17548e-10
-1.9633e-10
2.48266e-10
-1.97938e-10
2.78899e-10
-1.97394e-10
3.09108e-10
-1.94706e-10
3.3856e-10
-1.89905e-10
3.66931e-10
-1.83043e-10
3.93908e-10
-1.74197e-10
4.19194e-10
-1.63462e-10
4.4251e-10
-1.50953e-10
4.63599e-10
-1.36801e-10
4.82226e-10
-1.21156e-10
4.9818e-10
-1.04179e-10
5.11279e-10
-8.60465e-11
5.21369e-10
-6.69437e-11
5.28324e-10
-4.70663e-11
5.32052e-10
-2.6617e-11
5.32491e-10
-5.80401e-12
5.29611e-10
1.5161e-11
5.23417e-10
3.60646e-11
5.13944e-10
5.66938e-11
5.0126e-10
7.68375e-11
4.85391e-10
9.65332e-11
4.60934e-10
1.50787e-10
4.31643e-10
1.83223e-10
4.01545e-10
1.91314e-10
3.70839e-10
1.97738e-10
3.39823e-10
2.02188e-10
3.08789e-10
2.04672e-10
2.78019e-10
2.05212e-10
2.47781e-10
2.03848e-10
2.18335e-10
2.00639e-10
1.89922e-10
1.95655e-10
1.6277e-10
1.88986e-10
1.37087e-10
1.80736e-10
1.13062e-10
1.71026e-10
1.60946e-10
5.18046e-11
1.67213e-10
2.90881e-11
1.57726e-10
7.78748e-12
1.46589e-10
-1.17984e-11
1.33483e-10
-2.93813e-11
1.18518e-10
-4.46886e-11
1.01832e-10
-5.74687e-11
8.35919e-11
-6.7496e-11
6.39915e-11
-7.45761e-11
4.32494e-11
-7.85502e-11
2.16064e-11
-7.92992e-11
-6.77613e-13
-7.67465e-11
-2.33286e-11
-7.08605e-11
-4.60625e-11
-6.16557e-11
-6.85903e-11
-4.91931e-11
-9.0623e-11
-3.3579e-11
-1.11877e-10
-1.4964e-11
-1.32078e-10
6.4603e-12
-1.50968e-10
3.0464e-11
-1.68304e-10
5.67831e-11
-1.8387e-10
8.5124e-11
-1.97469e-10
1.15168e-10
-2.08937e-10
1.46575e-10
-2.18133e-10
1.78991e-10
-2.2495e-10
2.1205e-10
-2.29309e-10
2.45382e-10
-2.31162e-10
2.78613e-10
-2.30489e-10
3.11375e-10
-2.27301e-10
3.43302e-10
-2.21636e-10
3.74044e-10
-2.13558e-10
4.03261e-10
-2.03156e-10
4.3063e-10
-1.90544e-10
4.55851e-10
-1.75855e-10
4.78643e-10
-1.59245e-10
4.98751e-10
-1.40887e-10
5.15948e-10
-1.20971e-10
5.30034e-10
-9.97022e-11
5.40843e-10
-7.72967e-11
5.48238e-10
-5.39828e-11
5.52118e-10
-2.9997e-11
5.52415e-10
-5.58204e-12
5.49096e-10
1.90152e-11
5.42164e-10
4.35461e-11
5.31656e-10
6.77626e-11
5.17645e-10
9.14191e-11
5.00141e-10
1.14613e-10
4.7321e-10
1.78288e-10
4.41064e-10
2.15926e-10
4.08199e-10
2.24719e-10
3.74802e-10
2.31655e-10
3.41194e-10
2.36295e-10
3.07682e-10
2.38659e-10
2.74563e-10
2.38781e-10
2.42121e-10
2.36715e-10
2.10625e-10
2.32532e-10
1.80329e-10
2.26322e-10
1.51468e-10
2.1819e-10
1.24258e-10
2.08262e-10
9.88932e-11
1.96677e-10
7.51432e-11
1.84955e-10
5.11588e-11
1.67607e-10
2.84046e-11
1.58104e-10
7.06833e-12
1.4695e-10
-1.25514e-11
1.33828e-10
-3.01663e-11
1.18846e-10
-4.55039e-11
1.02144e-10
-5.83127e-11
8.38874e-11
-6.83672e-11
6.42706e-11
-7.54732e-11
4.35121e-11
-7.94719e-11
2.18529e-11
-8.02443e-11
-4.47691e-13
-7.77137e-11
-2.31154e-11
-7.18487e-11
-4.58665e-11
-6.26637e-11
-6.84119e-11
-5.02194e-11
-9.04629e-11
-3.46224e-11
-1.11736e-10
-1.60229e-11
-1.31957e-10
5.38756e-12
-1.50868e-10
2.93793e-11
-1.68227e-10
5.56887e-11
-1.83816e-10
8.4022e-11
-1.9744e-10
1.14061e-10
-2.08934e-10
1.45466e-10
-2.18158e-10
1.77883e-10
-2.25004e-10
2.10947e-10
-2.29394e-10
2.44287e-10
-2.31278e-10
2.7753e-10
-2.30638e-10
3.10307e-10
-2.27484e-10
3.42256e-10
-2.21853e-10
3.73022e-10
-2.1381e-10
4.02268e-10
-2.03443e-10
4.29671e-10
-1.90865e-10
4.5493e-10
-1.76212e-10
4.77765e-10
-1.59636e-10
4.9792e-10
-1.41312e-10
5.15169e-10
-1.21428e-10
5.29312e-10
-1.00189e-10
5.4018e-10
-7.78124e-11
5.47639e-10
-5.45252e-11
5.51586e-10
-3.05636e-11
5.51952e-10
-6.17028e-12
5.48705e-10
1.84081e-11
5.41846e-10
4.2923e-11
5.31414e-10
6.71265e-11
5.17478e-10
9.0773e-11
5.00051e-10
1.1396e-10
4.73193e-10
1.77645e-10
4.41119e-10
2.15297e-10
4.08321e-10
2.24112e-10
3.74989e-10
2.31071e-10
3.41441e-10
2.35737e-10
3.07984e-10
2.38128e-10
2.74918e-10
2.38278e-10
2.42524e-10
2.36242e-10
2.11072e-10
2.3209e-10
1.80816e-10
2.25911e-10
1.5199e-10
2.17811e-10
1.24812e-10
2.07915e-10
9.94748e-11
1.96362e-10
1.84671e-10
3.48725e-11
1.93134e-10
1.02361e-11
1.82363e-10
-1.29282e-11
1.69753e-10
-3.42905e-11
1.54845e-10
-5.35302e-11
1.37757e-10
-7.03423e-11
1.18644e-10
-8.44428e-11
9.76924e-11
-9.5576e-11
7.51246e-11
-1.03519e-10
5.11928e-11
-1.0809e-10
2.61773e-11
-1.0915e-10
3.81753e-13
-1.06606e-10
-2.58718e-11
-1.0042e-10
-5.22486e-11
-9.06031e-11
-7.84076e-11
-7.72186e-11
-1.04008e-10
-6.03824e-11
-1.28713e-10
-4.02595e-11
-1.52201e-10
-1.7061e-11
-1.74166e-10
8.95938e-12
-1.94325e-10
3.75104e-11
-2.12421e-10
6.82679e-11
-2.28227e-10
1.00881e-10
-2.41549e-10
1.34976e-10
-2.52228e-10
1.70164e-10
-2.60138e-10
2.06045e-10
-2.6519e-10
2.42214e-10
-2.67331e-10
2.78265e-10
-2.6654e-10
3.13795e-10
-2.62831e-10
3.4841e-10
-2.56251e-10
3.81728e-10
-2.46876e-10
4.13381e-10
-2.3481e-10
4.43022e-10
-2.20185e-10
4.70324e-10
-2.03157e-10
4.94984e-10
-1.83905e-10
5.16727e-10
-1.6263e-10
5.35306e-10
-1.3955e-10
5.50505e-10
-1.14901e-10
5.62143e-10
-8.89342e-11
5.70071e-10
-6.1911e-11
5.74178e-10
-3.41044e-11
5.74391e-10
-5.79448e-12
5.70672e-10
2.27342e-11
5.63023e-10
5.11951e-11
5.51483e-10
7.93022e-11
5.36129e-10
1.06773e-10
5.16957e-10
1.33786e-10
4.87433e-10
2.07812e-10
4.52275e-10
2.51083e-10
4.165e-10
2.60494e-10
3.80278e-10
2.67877e-10
3.43947e-10
2.72626e-10
3.07834e-10
2.74773e-10
2.72249e-10
2.74366e-10
2.3749e-10
2.71474e-10
2.03837e-10
2.66185e-10
1.71554e-10
2.58605e-10
1.40886e-10
2.48859e-10
1.12056e-10
2.37092e-10
8.52644e-11
2.23468e-10
6.01849e-11
2.10034e-10
3.42252e-11
1.93566e-10
9.55227e-12
1.82777e-10
-1.36465e-11
1.70149e-10
-3.50413e-11
1.55222e-10
-5.43117e-11
1.38116e-10
-7.11528e-11
1.18985e-10
-8.52809e-11
9.80154e-11
-9.64401e-11
7.54299e-11
-1.04408e-10
5.14805e-11
-1.09003e-10
2.64475e-11
-1.10085e-10
6.3449e-13
-1.07564e-10
-2.56367e-11
-1.01399e-10
-5.20316e-11
-9.16016e-11
-7.82092e-11
-7.8236e-11
-1.03828e-10
-6.14177e-11
-1.28554e-10
-4.13112e-11
-1.52064e-10
-1.81278e-11
-1.74051e-10
7.87934e-12
-1.94234e-10
3.6419e-11
-2.12355e-10
6.71674e-11
-2.28189e-10
9.97735e-11
-2.4154e-10
1.33865e-10
-2.52249e-10
1.69052e-10
-2.60192e-10
2.04936e-10
-2.65278e-10
2.41111e-10
-2.67453e-10
2.77172e-10
-2.66699e-10
3.12717e-10
-2.63028e-10
3.47351e-10
-2.56487e-10
3.80692e-10
-2.47151e-10
4.12374e-10
-2.35125e-10
4.42049e-10
-2.2054e-10
4.69389e-10
-2.03552e-10
4.94093e-10
-1.84339e-10
5.15883e-10
-1.63102e-10
5.34515e-10
-1.40059e-10
5.49772e-10
-1.15446e-10
5.61471e-10
-8.95115e-11
5.69464e-10
-6.25187e-11
5.7364e-10
-3.47398e-11
5.73925e-10
-6.4545e-12
5.7028e-10
2.20528e-11
5.62707e-10
5.04957e-11
5.51245e-10
7.85884e-11
5.3597e-10
1.06048e-10
5.16876e-10
1.33054e-10
4.87428e-10
2.07094e-10
4.52343e-10
2.50382e-10
4.16636e-10
2.59818e-10
3.80479e-10
2.67228e-10
3.44208e-10
2.72007e-10
3.0815e-10
2.74185e-10
2.72617e-10
2.73812e-10
2.37905e-10
2.70954e-10
2.04295e-10
2.657e-10
1.7205e-10
2.58156e-10
1.41416e-10
2.48446e-10
1.12615e-10
2.36715e-10