/*--------------------------------*- C++ -*----------------------------------*\
| =========                 |                                                 |
| \\      /  F ield         | OpenFOAM: The Open Source CFD Toolbox           |
|  \\    /   O peration     | Version:  5.x                                   |
|   \\  /    A nd           | Web:      www.OpenFOAM.org                      |
|    \\/     M anipulation  |                                                 |
\*---------------------------------------------------------------------------*/
FoamFile
{
    version     2.0;
    format      ascii;
    class       volScalarField;
    location    "300/subsurface";
    object      pPrime2Mean;
}
// * * * * * * * * * * * * * * * * * * * * * * * * * * * * * * * * * * * * * //

dimensions      [0 4 -4 0 0 0 0];

internalField   nonuniform List<scalar> 
7200
(
7.79883e-07
7.78772e-07
7.78173e-07
7.78086e-07
7.78508e-07
7.79429e-07
7.80835e-07
7.82704e-07
7.85011e-07
7.87723e-07
7.90804e-07
7.94214e-07
7.97908e-07
8.01836e-07
8.05949e-07
8.10191e-07
8.14507e-07
8.1884e-07
8.23132e-07
8.27325e-07
8.31363e-07
8.35189e-07
8.38752e-07
8.41999e-07
8.44883e-07
8.47362e-07
8.49396e-07
8.50951e-07
8.51999e-07
8.52516e-07
8.52487e-07
8.51901e-07
8.50754e-07
8.49049e-07
8.46796e-07
8.44009e-07
8.40713e-07
8.36934e-07
8.32707e-07
8.28071e-07
8.23071e-07
8.17754e-07
8.12174e-07
8.06386e-07
8.00447e-07
7.94417e-07
7.88364e-07
7.82343e-07
7.76405e-07
7.70613e-07
7.65028e-07
7.59707e-07
7.54707e-07
7.50083e-07
7.45883e-07
7.42155e-07
7.3894e-07
7.36272e-07
7.34181e-07
7.32691e-07
7.31812e-07
7.31556e-07
7.31933e-07
7.32941e-07
7.34577e-07
7.36829e-07
7.39679e-07
7.43106e-07
7.4708e-07
7.51568e-07
7.5653e-07
7.61922e-07
7.67696e-07
7.73799e-07
7.80174e-07
7.86763e-07
7.93502e-07
8.0033e-07
8.07179e-07
8.13986e-07
8.20685e-07
8.27212e-07
8.33505e-07
8.39503e-07
8.4515e-07
8.50393e-07
8.55183e-07
8.59477e-07
8.63235e-07
8.66427e-07
8.69026e-07
8.71014e-07
8.72377e-07
8.73111e-07
8.73217e-07
8.72706e-07
8.71591e-07
8.69897e-07
8.67651e-07
8.64889e-07
8.6165e-07
8.57981e-07
8.5393e-07
8.49551e-07
8.449e-07
8.40035e-07
8.35023e-07
8.29919e-07
8.24778e-07
8.19659e-07
8.14622e-07
8.09724e-07
8.05021e-07
8.00566e-07
7.96408e-07
7.92593e-07
7.89162e-07
7.86149e-07
7.83586e-07
7.81494e-07
7.78544e-07
7.77401e-07
7.76786e-07
7.76702e-07
7.77145e-07
7.78105e-07
7.79568e-07
7.81511e-07
7.83908e-07
7.86727e-07
7.89929e-07
7.93474e-07
7.97313e-07
8.01398e-07
8.05674e-07
8.10087e-07
8.14577e-07
8.19086e-07
8.23555e-07
8.27922e-07
8.3213e-07
8.3612e-07
8.39838e-07
8.4323e-07
8.46247e-07
8.48845e-07
8.50982e-07
8.52623e-07
8.53739e-07
8.54306e-07
8.54305e-07
8.53727e-07
8.52567e-07
8.50827e-07
8.48518e-07
8.45654e-07
8.4226e-07
8.38363e-07
8.34e-07
8.2921e-07
8.2404e-07
8.18539e-07
8.12762e-07
8.06766e-07
8.00612e-07
7.94361e-07
7.88091e-07
7.81867e-07
7.75744e-07
7.69778e-07
7.64031e-07
7.58565e-07
7.53436e-07
7.487e-07
7.44408e-07
7.40606e-07
7.37335e-07
7.3463e-07
7.32522e-07
7.31032e-07
7.30138e-07
7.29855e-07
7.30221e-07
7.31238e-07
7.32901e-07
7.35199e-07
7.38115e-07
7.41626e-07
7.45702e-07
7.50309e-07
7.55407e-07
7.60949e-07
7.66886e-07
7.73163e-07
7.79723e-07
7.86503e-07
7.9344e-07
8.00467e-07
8.07519e-07
8.14526e-07
8.21422e-07
8.2814e-07
8.34615e-07
8.40787e-07
8.46595e-07
8.51984e-07
8.56905e-07
8.61312e-07
8.65165e-07
8.68431e-07
8.71084e-07
8.73102e-07
8.74474e-07
8.75195e-07
8.75265e-07
8.74693e-07
8.73498e-07
8.71701e-07
8.69332e-07
8.66428e-07
8.63031e-07
8.59187e-07
8.54948e-07
8.50368e-07
8.45508e-07
8.40426e-07
8.35197e-07
8.29886e-07
8.24551e-07
8.19251e-07
8.14045e-07
8.08993e-07
8.04153e-07
7.99578e-07
7.95318e-07
7.91421e-07
7.87925e-07
7.84868e-07
7.82277e-07
7.80176e-07
7.75981e-07
7.74777e-07
7.74132e-07
7.74052e-07
7.74531e-07
7.75563e-07
7.77129e-07
7.7921e-07
7.81775e-07
7.84792e-07
7.8822e-07
7.92015e-07
7.96128e-07
8.00506e-07
8.05092e-07
8.09826e-07
8.14647e-07
8.19491e-07
8.24296e-07
8.28997e-07
8.33531e-07
8.37838e-07
8.41856e-07
8.45532e-07
8.4881e-07
8.51644e-07
8.53989e-07
8.55807e-07
8.57067e-07
8.57741e-07
8.57811e-07
8.57264e-07
8.56095e-07
8.54306e-07
8.51906e-07
8.48912e-07
8.45347e-07
8.41241e-07
8.36632e-07
8.31562e-07
8.2608e-07
8.20238e-07
8.14095e-07
8.07711e-07
8.01151e-07
7.94481e-07
7.87791e-07
7.81168e-07
7.74668e-07
7.68348e-07
7.62273e-07
7.56507e-07
7.51111e-07
7.46143e-07
7.41654e-07
7.37693e-07
7.34301e-07
7.31516e-07
7.29364e-07
7.27868e-07
7.26945e-07
7.26607e-07
7.26952e-07
7.27982e-07
7.29693e-07
7.32075e-07
7.3511e-07
7.38775e-07
7.43039e-07
7.47866e-07
7.53214e-07
7.59035e-07
7.65276e-07
7.71879e-07
7.78784e-07
7.85924e-07
7.93232e-07
8.00639e-07
8.08072e-07
8.15459e-07
8.22731e-07
8.29814e-07
8.36642e-07
8.43148e-07
8.49268e-07
8.54945e-07
8.60125e-07
8.64758e-07
8.68804e-07
8.72225e-07
8.74993e-07
8.77087e-07
8.78492e-07
8.79202e-07
8.79218e-07
8.78551e-07
8.77217e-07
8.7524e-07
8.72653e-07
8.69493e-07
8.65805e-07
8.6164e-07
8.57052e-07
8.521e-07
8.46846e-07
8.41358e-07
8.35712e-07
8.29997e-07
8.24276e-07
8.18611e-07
8.13066e-07
8.07704e-07
8.02583e-07
7.97762e-07
7.93291e-07
7.89219e-07
7.85588e-07
7.82432e-07
7.7978e-07
7.77654e-07
7.72273e-07
7.70978e-07
7.7029e-07
7.70213e-07
7.70745e-07
7.71876e-07
7.73592e-07
7.75869e-07
7.78676e-07
7.81977e-07
7.8573e-07
7.89887e-07
7.94395e-07
7.99195e-07
8.04227e-07
8.09426e-07
8.14725e-07
8.20056e-07
8.25348e-07
8.30533e-07
8.35542e-07
8.40308e-07
8.44767e-07
8.48855e-07
8.52517e-07
8.55697e-07
8.58349e-07
8.6043e-07
8.61904e-07
8.62742e-07
8.62921e-07
8.62427e-07
8.61254e-07
8.59401e-07
8.56878e-07
8.53703e-07
8.49898e-07
8.45497e-07
8.40538e-07
8.35068e-07
8.29139e-07
8.22807e-07
8.16136e-07
8.09193e-07
8.02046e-07
7.9477e-07
7.87467e-07
7.80257e-07
7.73202e-07
7.66359e-07
7.59799e-07
7.53591e-07
7.47799e-07
7.42486e-07
7.37705e-07
7.33509e-07
7.29939e-07
7.27032e-07
7.24815e-07
7.2331e-07
7.22345e-07
7.21927e-07
7.22238e-07
7.23285e-07
7.25063e-07
7.27563e-07
7.30768e-07
7.34652e-07
7.39184e-07
7.44326e-07
7.50033e-07
7.56253e-07
7.62931e-07
7.70003e-07
7.77404e-07
7.85063e-07
7.92907e-07
8.00859e-07
8.08844e-07
8.16782e-07
8.24597e-07
8.3221e-07
8.39549e-07
8.46541e-07
8.53117e-07
8.59213e-07
8.64771e-07
8.69738e-07
8.74067e-07
8.77719e-07
8.80661e-07
8.8287e-07
8.84329e-07
8.85031e-07
8.84977e-07
8.84177e-07
8.82649e-07
8.80418e-07
8.77519e-07
8.73994e-07
8.6989e-07
8.65262e-07
8.6017e-07
8.5468e-07
8.48859e-07
8.4278e-07
8.36529e-07
8.30221e-07
8.23935e-07
8.17735e-07
8.1169e-07
8.0587e-07
8.00337e-07
7.95152e-07
7.90371e-07
7.86042e-07
7.82209e-07
7.78908e-07
7.76167e-07
7.74005e-07
7.6747e-07
7.66058e-07
7.65311e-07
7.65237e-07
7.65834e-07
7.67095e-07
7.69003e-07
7.71533e-07
7.74652e-07
7.78322e-07
7.82496e-07
7.87122e-07
7.92141e-07
7.97489e-07
8.03101e-07
8.08903e-07
8.14823e-07
8.20784e-07
8.26711e-07
8.32526e-07
8.38153e-07
8.43518e-07
8.48549e-07
8.53178e-07
8.57339e-07
8.60975e-07
8.6403e-07
8.66457e-07
8.68215e-07
8.69271e-07
8.69598e-07
8.69179e-07
8.68005e-07
8.66076e-07
8.634e-07
8.59994e-07
8.55884e-07
8.51103e-07
8.45694e-07
8.39707e-07
8.33199e-07
8.26233e-07
8.18877e-07
8.11205e-07
8.03296e-07
7.95229e-07
7.87128e-07
7.79148e-07
7.71366e-07
7.63838e-07
7.56644e-07
7.49857e-07
7.43548e-07
7.37784e-07
7.32624e-07
7.28121e-07
7.24319e-07
7.21255e-07
7.18956e-07
7.17441e-07
7.16424e-07
7.15898e-07
7.16164e-07
7.17229e-07
7.19091e-07
7.21741e-07
7.25162e-07
7.29327e-07
7.34204e-07
7.39752e-07
7.45921e-07
7.52658e-07
7.59899e-07
7.67578e-07
7.7562e-07
7.83951e-07
7.92488e-07
8.01148e-07
8.09848e-07
8.185e-07
8.27019e-07
8.35321e-07
8.43324e-07
8.50947e-07
8.58116e-07
8.64759e-07
8.70811e-07
8.76214e-07
8.80914e-07
8.84869e-07
8.88041e-07
8.90403e-07
8.91936e-07
8.92632e-07
8.92491e-07
8.91522e-07
8.89744e-07
8.87185e-07
8.83884e-07
8.79884e-07
8.75239e-07
8.7001e-07
8.64263e-07
8.58071e-07
8.5151e-07
8.44661e-07
8.3762e-07
8.30535e-07
8.23509e-07
8.16609e-07
8.09913e-07
8.03494e-07
7.97424e-07
7.91766e-07
7.8658e-07
7.81919e-07
7.77826e-07
7.74338e-07
7.71483e-07
7.69278e-07
7.61605e-07
7.60047e-07
7.59226e-07
7.59154e-07
7.59831e-07
7.61249e-07
7.6339e-07
7.66228e-07
7.69729e-07
7.7385e-07
7.78539e-07
7.83739e-07
7.89384e-07
7.95405e-07
8.01726e-07
8.08268e-07
8.1495e-07
8.21685e-07
8.2839e-07
8.34978e-07
8.41364e-07
8.47465e-07
8.53201e-07
8.58494e-07
8.63273e-07
8.6747e-07
8.71023e-07
8.73879e-07
8.75991e-07
8.77319e-07
8.77834e-07
8.77514e-07
8.76346e-07
8.74329e-07
8.71471e-07
8.67787e-07
8.63306e-07
8.58064e-07
8.52106e-07
8.45487e-07
8.3827e-07
8.30524e-07
8.22328e-07
8.13762e-07
8.04914e-07
7.95875e-07
7.86788e-07
7.77858e-07
7.6918e-07
7.6081e-07
7.52834e-07
7.45336e-07
7.38394e-07
7.32079e-07
7.26455e-07
7.21578e-07
7.17495e-07
7.14242e-07
7.11847e-07
7.10324e-07
7.09242e-07
7.08583e-07
7.08791e-07
7.09874e-07
7.11835e-07
7.14665e-07
7.18346e-07
7.22852e-07
7.28148e-07
7.34189e-07
7.40923e-07
7.48289e-07
7.56218e-07
7.64637e-07
7.73464e-07
7.82615e-07
7.92e-07
8.01527e-07
8.11101e-07
8.20627e-07
8.30009e-07
8.39155e-07
8.47971e-07
8.56369e-07
8.64265e-07
8.7158e-07
8.78239e-07
8.84177e-07
8.89336e-07
8.93664e-07
8.9712e-07
8.99673e-07
9.01301e-07
9.01992e-07
9.01746e-07
9.00571e-07
8.98488e-07
8.95528e-07
8.91731e-07
8.87148e-07
8.81838e-07
8.75869e-07
8.69314e-07
8.62257e-07
8.54783e-07
8.46982e-07
8.38965e-07
8.30923e-07
8.22984e-07
8.15223e-07
8.07725e-07
8.00573e-07
7.93844e-07
7.87609e-07
7.8193e-07
7.76864e-07
7.72457e-07
7.68745e-07
7.65756e-07
7.63504e-07
7.54698e-07
7.52965e-07
7.52055e-07
7.51983e-07
7.52751e-07
7.54352e-07
7.56768e-07
7.5997e-07
7.63922e-07
7.68575e-07
7.73873e-07
7.79752e-07
7.86138e-07
7.92955e-07
8.00116e-07
8.07535e-07
8.15117e-07
8.2277e-07
8.30396e-07
8.379e-07
8.45186e-07
8.5216e-07
8.58733e-07
8.64816e-07
8.70328e-07
8.75193e-07
8.79341e-07
8.8271e-07
8.85246e-07
8.86904e-07
8.87646e-07
8.87449e-07
8.86295e-07
8.84181e-07
8.81112e-07
8.77106e-07
8.7219e-07
8.66405e-07
8.598e-07
8.52434e-07
8.44378e-07
8.35709e-07
8.26515e-07
8.16886e-07
8.06923e-07
7.96728e-07
7.86468e-07
7.76408e-07
7.66664e-07
7.57294e-07
7.48394e-07
7.40056e-07
7.32366e-07
7.25403e-07
7.19234e-07
7.13919e-07
7.09508e-07
7.06037e-07
7.03532e-07
7.02006e-07
7.00851e-07
7.0003e-07
7.00163e-07
7.01264e-07
7.03336e-07
7.06374e-07
7.10359e-07
7.15264e-07
7.21051e-07
7.27673e-07
7.3507e-07
7.43177e-07
7.51918e-07
7.61209e-07
7.70963e-07
7.81082e-07
7.91468e-07
8.02018e-07
8.12625e-07
8.23184e-07
8.33587e-07
8.43729e-07
8.53508e-07
8.62823e-07
8.7158e-07
8.79689e-07
8.87069e-07
8.93643e-07
8.99345e-07
9.04118e-07
9.07914e-07
9.10696e-07
9.12437e-07
9.13125e-07
9.12755e-07
9.11337e-07
9.08894e-07
9.05457e-07
9.01072e-07
8.95795e-07
8.89693e-07
8.82841e-07
8.75324e-07
8.67234e-07
8.5867e-07
8.49735e-07
8.40552e-07
8.31369e-07
8.22346e-07
8.13563e-07
8.05117e-07
7.97098e-07
7.89593e-07
7.82677e-07
7.76421e-07
7.70882e-07
7.6611e-07
7.62141e-07
7.59001e-07
7.56701e-07
7.46761e-07
7.44822e-07
7.43807e-07
7.43731e-07
7.44602e-07
7.46412e-07
7.49144e-07
7.52766e-07
7.57237e-07
7.62506e-07
7.68507e-07
7.7517e-07
7.82414e-07
7.9015e-07
7.98283e-07
8.06714e-07
8.1534e-07
8.24053e-07
8.32745e-07
8.41309e-07
8.49636e-07
8.57621e-07
8.65163e-07
8.72162e-07
8.78525e-07
8.84167e-07
8.89008e-07
8.92976e-07
8.96008e-07
8.98053e-07
8.99067e-07
8.9902e-07
8.9789e-07
8.95671e-07
8.92366e-07
8.87993e-07
8.82581e-07
8.76171e-07
8.6882e-07
8.60592e-07
8.51565e-07
8.41827e-07
8.31475e-07
8.20614e-07
8.09355e-07
7.97816e-07
7.86192e-07
7.74819e-07
7.6384e-07
7.53312e-07
7.43344e-07
7.34038e-07
7.25489e-07
7.1778e-07
7.10988e-07
7.05175e-07
7.00391e-07
6.96675e-07
6.94051e-07
6.92528e-07
6.91288e-07
6.90275e-07
6.90317e-07
6.91432e-07
6.93628e-07
6.96899e-07
7.0123e-07
7.06591e-07
7.12941e-07
7.20228e-07
7.28389e-07
7.37348e-07
7.47023e-07
7.57321e-07
7.68141e-07
7.79378e-07
7.90918e-07
8.02648e-07
8.14447e-07
8.26197e-07
8.37778e-07
8.49071e-07
8.59961e-07
8.70335e-07
8.80087e-07
8.89116e-07
8.97329e-07
9.04639e-07
9.10972e-07
9.16262e-07
9.20452e-07
9.23501e-07
9.25377e-07
9.26062e-07
9.25551e-07
9.23854e-07
9.20993e-07
9.17003e-07
9.11935e-07
9.05852e-07
8.98827e-07
8.90946e-07
8.82307e-07
8.73013e-07
8.63178e-07
8.52919e-07
8.42378e-07
8.31867e-07
8.21585e-07
8.11619e-07
8.02076e-07
7.93059e-07
7.84661e-07
7.76967e-07
7.7005e-07
7.63974e-07
7.58789e-07
7.54532e-07
7.51226e-07
7.4888e-07
7.37802e-07
7.35626e-07
7.34485e-07
7.34403e-07
7.35387e-07
7.37433e-07
7.40521e-07
7.44618e-07
7.49679e-07
7.55645e-07
7.62447e-07
7.70001e-07
7.78219e-07
7.87e-07
7.96238e-07
8.05821e-07
8.15632e-07
8.2555e-07
8.35455e-07
8.45224e-07
8.54736e-07
8.63872e-07
8.72516e-07
8.80559e-07
8.87894e-07
8.94423e-07
9.00056e-07
9.0471e-07
9.08315e-07
9.10808e-07
9.1214e-07
9.12272e-07
9.11179e-07
9.08849e-07
9.05285e-07
9.00502e-07
8.94532e-07
8.87418e-07
8.79222e-07
8.70015e-07
8.59884e-07
8.48927e-07
8.37255e-07
8.24986e-07
8.12247e-07
7.99174e-07
7.8599e-07
7.73117e-07
7.6073e-07
7.48886e-07
7.37706e-07
7.27305e-07
7.17785e-07
7.09238e-07
7.01746e-07
6.95374e-07
6.90176e-07
6.86189e-07
6.83437e-07
6.81923e-07
6.80588e-07
6.7935e-07
6.79282e-07
6.80406e-07
6.82734e-07
6.86265e-07
6.90982e-07
6.96854e-07
7.03838e-07
7.11877e-07
7.209e-07
7.30825e-07
7.41558e-07
7.52995e-07
7.65025e-07
7.77528e-07
7.90378e-07
8.03445e-07
8.16596e-07
8.29698e-07
8.42614e-07
8.55212e-07
8.67363e-07
8.7894e-07
8.89822e-07
8.99896e-07
9.09056e-07
9.17205e-07
9.24257e-07
9.30136e-07
9.34779e-07
9.38134e-07
9.40166e-07
9.40851e-07
9.40183e-07
9.38168e-07
9.34832e-07
9.30212e-07
9.24363e-07
9.17356e-07
9.09274e-07
9.00215e-07
8.90287e-07
8.79612e-07
8.68318e-07
8.56541e-07
8.44441e-07
8.32411e-07
8.20694e-07
8.09381e-07
7.98594e-07
7.88447e-07
7.79042e-07
7.70471e-07
7.62814e-07
7.56138e-07
7.50493e-07
7.45919e-07
7.42437e-07
7.4005e-07
7.27827e-07
7.25379e-07
7.24094e-07
7.23999e-07
7.25107e-07
7.27413e-07
7.30899e-07
7.35528e-07
7.4125e-07
7.47999e-07
7.55697e-07
7.64253e-07
7.73564e-07
7.83518e-07
7.93997e-07
8.04872e-07
8.16013e-07
8.27284e-07
8.38549e-07
8.4967e-07
8.60511e-07
8.70939e-07
8.80823e-07
8.90038e-07
8.98466e-07
9.05995e-07
9.12523e-07
9.17956e-07
9.2221e-07
9.25216e-07
9.26914e-07
9.27258e-07
9.26217e-07
9.23775e-07
9.1993e-07
9.14697e-07
9.08107e-07
9.0021e-07
8.91069e-07
8.80764e-07
8.69393e-07
8.57066e-07
8.43906e-07
8.3005e-07
8.15642e-07
8.00837e-07
7.85893e-07
7.7133e-07
7.57359e-07
7.44039e-07
7.31504e-07
7.1988e-07
7.0928e-07
6.99803e-07
6.91535e-07
6.84546e-07
6.78892e-07
6.7461e-07
6.7172e-07
6.70224e-07
6.68782e-07
6.67285e-07
6.67084e-07
6.6821e-07
6.70679e-07
6.74492e-07
6.79634e-07
6.86074e-07
6.93763e-07
7.0264e-07
7.12626e-07
7.23629e-07
7.35544e-07
7.48257e-07
7.6164e-07
7.7556e-07
7.89876e-07
8.0444e-07
8.19105e-07
8.33719e-07
8.4813e-07
8.6219e-07
8.75753e-07
8.88676e-07
9.00825e-07
9.1207e-07
9.22294e-07
9.31385e-07
9.39246e-07
9.4579e-07
9.50943e-07
9.54648e-07
9.56858e-07
9.57548e-07
9.56705e-07
9.54337e-07
9.50466e-07
9.45137e-07
9.38407e-07
9.30357e-07
9.21079e-07
9.10685e-07
8.99299e-07
8.87058e-07
8.7411e-07
8.60611e-07
8.46746e-07
8.33001e-07
8.19667e-07
8.06843e-07
7.94665e-07
7.83257e-07
7.72731e-07
7.63188e-07
7.54712e-07
7.47373e-07
7.41226e-07
7.36308e-07
7.32638e-07
7.30215e-07
7.16841e-07
7.14086e-07
7.12635e-07
7.12521e-07
7.13762e-07
7.16355e-07
7.2028e-07
7.25498e-07
7.31953e-07
7.39572e-07
7.48266e-07
7.57934e-07
7.6846e-07
7.79719e-07
7.91574e-07
8.03885e-07
8.16503e-07
8.29276e-07
8.42051e-07
8.54673e-07
8.66991e-07
8.78853e-07
8.90114e-07
9.00634e-07
9.10279e-07
9.18923e-07
9.2645e-07
9.32754e-07
9.3774e-07
9.41325e-07
9.43442e-07
9.44034e-07
9.43065e-07
9.4051e-07
9.36366e-07
9.30644e-07
9.23378e-07
9.14616e-07
9.0443e-07
8.92909e-07
8.80159e-07
8.66304e-07
8.51486e-07
8.35858e-07
8.19586e-07
8.02846e-07
7.85936e-07
7.69486e-07
7.53755e-07
7.38797e-07
7.24764e-07
7.11792e-07
7.00003e-07
6.89505e-07
6.80387e-07
6.72725e-07
6.66573e-07
6.61971e-07
6.58935e-07
6.57463e-07
6.55901e-07
6.54107e-07
6.53749e-07
6.54867e-07
6.57483e-07
6.61601e-07
6.67207e-07
6.74269e-07
6.82735e-07
6.92536e-07
7.03586e-07
7.15782e-07
7.29008e-07
7.43133e-07
7.58015e-07
7.73505e-07
7.89444e-07
8.05668e-07
8.22008e-07
8.38297e-07
8.54365e-07
8.70044e-07
8.85171e-07
8.99586e-07
9.13139e-07
9.25685e-07
9.37089e-07
9.47228e-07
9.5599e-07
9.63276e-07
9.69002e-07
9.73098e-07
9.75513e-07
9.76213e-07
9.75181e-07
9.72422e-07
9.6796e-07
9.6184e-07
9.54128e-07
9.4491e-07
9.34293e-07
9.22402e-07
9.09379e-07
8.95381e-07
8.80576e-07
8.65146e-07
8.49302e-07
8.33641e-07
8.18507e-07
8.04005e-07
7.90286e-07
7.77486e-07
7.65728e-07
7.55117e-07
7.45745e-07
7.37684e-07
7.30991e-07
7.25703e-07
7.21835e-07
7.19384e-07
7.04853e-07
7.01753e-07
7.00112e-07
6.99972e-07
7.01354e-07
7.04259e-07
7.08666e-07
7.14531e-07
7.21794e-07
7.30371e-07
7.40164e-07
7.51058e-07
7.62924e-07
7.75619e-07
7.88991e-07
8.02883e-07
8.17126e-07
8.31552e-07
8.45988e-07
8.60262e-07
8.74204e-07
8.87645e-07
9.00423e-07
9.1238e-07
9.23367e-07
9.33243e-07
9.41877e-07
9.49149e-07
9.5495e-07
9.59185e-07
9.61776e-07
9.62658e-07
9.61782e-07
9.5912e-07
9.54661e-07
9.48416e-07
9.40415e-07
9.30712e-07
9.19381e-07
9.06521e-07
8.9225e-07
8.76709e-07
8.60055e-07
8.42465e-07
8.24128e-07
8.05244e-07
7.86155e-07
7.67619e-07
7.49946e-07
7.33189e-07
7.17514e-07
7.0307e-07
6.89987e-07
6.78379e-07
6.6834e-07
6.59947e-07
6.53257e-07
6.48309e-07
6.45117e-07
6.43675e-07
6.41976e-07
6.39845e-07
6.39304e-07
6.40401e-07
6.43168e-07
6.47612e-07
6.5372e-07
6.6146e-07
6.70775e-07
6.81588e-07
6.93805e-07
7.07311e-07
7.21975e-07
7.37651e-07
7.54181e-07
7.71396e-07
7.89118e-07
8.07163e-07
8.25345e-07
8.43473e-07
8.61358e-07
8.78814e-07
8.95659e-07
9.11713e-07
9.26809e-07
9.40784e-07
9.53489e-07
9.64783e-07
9.7454e-07
9.82647e-07
9.89009e-07
9.93545e-07
9.96192e-07
9.9691e-07
9.95676e-07
9.92491e-07
9.8738e-07
9.80388e-07
9.71589e-07
9.61077e-07
9.48973e-07
9.35417e-07
9.20572e-07
9.04616e-07
8.87745e-07
8.70165e-07
8.52122e-07
8.34335e-07
8.17214e-07
8.00868e-07
7.85461e-07
7.71141e-07
7.58039e-07
7.46268e-07
7.35924e-07
7.27082e-07
7.198e-07
7.14114e-07
7.10039e-07
7.07565e-07
6.91874e-07
6.88388e-07
6.86532e-07
6.86356e-07
6.87889e-07
6.91132e-07
6.96064e-07
7.02637e-07
7.10782e-07
7.20409e-07
7.31405e-07
7.43641e-07
7.56972e-07
7.71239e-07
7.86271e-07
8.0189e-07
8.17909e-07
8.3414e-07
8.5039e-07
8.66468e-07
8.82182e-07
8.97348e-07
9.11782e-07
9.25311e-07
9.37767e-07
9.48993e-07
9.58843e-07
9.6718e-07
9.73883e-07
9.78844e-07
9.81969e-07
9.83183e-07
9.82429e-07
9.79668e-07
9.74884e-07
9.68083e-07
9.59294e-07
9.48572e-07
9.35997e-07
9.21676e-07
9.05741e-07
8.88348e-07
8.69677e-07
8.49928e-07
8.29318e-07
8.08075e-07
7.86589e-07
7.65762e-07
7.45964e-07
7.27247e-07
7.09789e-07
6.93752e-07
6.79272e-07
6.66467e-07
6.55436e-07
6.46257e-07
6.38988e-07
6.33666e-07
6.30306e-07
6.28896e-07
6.27043e-07
6.24531e-07
6.23776e-07
6.24839e-07
6.27759e-07
6.32548e-07
6.39197e-07
6.47669e-07
6.57905e-07
6.6982e-07
6.83308e-07
6.98242e-07
7.14475e-07
7.31844e-07
7.50171e-07
7.69267e-07
7.88934e-07
8.08966e-07
8.29153e-07
8.49286e-07
8.69152e-07
8.88544e-07
9.07259e-07
9.251e-07
9.41878e-07
9.57414e-07
9.71538e-07
9.84096e-07
9.94944e-07
1.00396e-06
1.01102e-06
1.01604e-06
1.01896e-06
1.0197e-06
1.01826e-06
1.01461e-06
1.0088e-06
1.00085e-06
9.90859e-07
9.78923e-07
9.65179e-07
9.49784e-07
9.32924e-07
9.14803e-07
8.95646e-07
8.75689e-07
8.55217e-07
8.35094e-07
8.15798e-07
7.97439e-07
7.80196e-07
7.64229e-07
7.49676e-07
7.36655e-07
7.25264e-07
7.15583e-07
7.07668e-07
7.01558e-07
6.97264e-07
6.94771e-07
6.7792e-07
6.74004e-07
6.71905e-07
6.71685e-07
6.73376e-07
6.76983e-07
6.82483e-07
6.89826e-07
6.98932e-07
7.09701e-07
7.22007e-07
7.35704e-07
7.50629e-07
7.66605e-07
7.8344e-07
8.00935e-07
8.18883e-07
8.37072e-07
8.55289e-07
8.73321e-07
8.90958e-07
9.07992e-07
9.24223e-07
9.39457e-07
9.5351e-07
9.66206e-07
9.77382e-07
9.86886e-07
9.94581e-07
1.00034e-06
1.00407e-06
1.00566e-06
1.00506e-06
1.00222e-06
9.97102e-07
9.89717e-07
9.80089e-07
9.68274e-07
9.54356e-07
9.38451e-07
9.20705e-07
9.01293e-07
8.80418e-07
8.58307e-07
8.35208e-07
8.11385e-07
7.87275e-07
7.63949e-07
7.41843e-07
7.21004e-07
7.01627e-07
6.83878e-07
6.67902e-07
6.53818e-07
6.41727e-07
6.31706e-07
6.23815e-07
6.18091e-07
6.14547e-07
6.1317e-07
6.1114e-07
6.08199e-07
6.07198e-07
6.0821e-07
6.11284e-07
6.16438e-07
6.23664e-07
6.32924e-07
6.44154e-07
6.57261e-07
6.72126e-07
6.88608e-07
7.06542e-07
7.25747e-07
7.46023e-07
7.67159e-07
7.88933e-07
8.11117e-07
8.33477e-07
8.55778e-07
8.77788e-07
8.99275e-07
9.20014e-07
9.39788e-07
9.58388e-07
9.75614e-07
9.91279e-07
1.00521e-06
1.01725e-06
1.02725e-06
1.03508e-06
1.04065e-06
1.04386e-06
1.04465e-06
1.04299e-06
1.03886e-06
1.03228e-06
1.0233e-06
1.01201e-06
9.98516e-07
9.82973e-07
9.65559e-07
9.46484e-07
9.25982e-07
9.04311e-07
8.81742e-07
8.58605e-07
8.35929e-07
8.14266e-07
7.93728e-07
7.74507e-07
7.5677e-07
7.40661e-07
7.26301e-07
7.13792e-07
7.03212e-07
6.94621e-07
6.88057e-07
6.83529e-07
6.81021e-07
6.63008e-07
6.58617e-07
6.56247e-07
6.55971e-07
6.57828e-07
6.61826e-07
6.67941e-07
6.76115e-07
6.86263e-07
6.98269e-07
7.11993e-07
7.27272e-07
7.43923e-07
7.61746e-07
7.8053e-07
8.00051e-07
8.20079e-07
8.4038e-07
8.60717e-07
8.80855e-07
9.00561e-07
9.19609e-07
9.37776e-07
9.54849e-07
9.70625e-07
9.84911e-07
9.97525e-07
1.0083e-06
1.01708e-06
1.02372e-06
1.02811e-06
1.03014e-06
1.02973e-06
1.02682e-06
1.02138e-06
1.01339e-06
1.00287e-06
9.89895e-07
9.74537e-07
9.56926e-07
9.3722e-07
9.15616e-07
8.92344e-07
8.67661e-07
8.41851e-07
8.15217e-07
7.88254e-07
7.62215e-07
7.37616e-07
7.14499e-07
6.93067e-07
6.73496e-07
6.5593e-07
6.4049e-07
6.27272e-07
6.16355e-07
6.07798e-07
6.01639e-07
5.97891e-07
5.9654e-07
5.94307e-07
5.90887e-07
5.89605e-07
5.90548e-07
5.93775e-07
5.99311e-07
6.07151e-07
6.17256e-07
6.29554e-07
6.43944e-07
6.60294e-07
6.78445e-07
6.98215e-07
7.194e-07
7.41779e-07
7.65114e-07
7.89159e-07
8.1366e-07
8.38359e-07
8.62994e-07
8.87308e-07
9.11047e-07
9.33963e-07
9.55816e-07
9.76375e-07
9.95421e-07
1.01275e-06
1.02816e-06
1.04149e-06
1.05257e-06
1.06125e-06
1.06741e-06
1.07096e-06
1.07182e-06
1.06993e-06
1.06529e-06
1.0579e-06
1.04781e-06
1.03511e-06
1.01993e-06
1.00242e-06
9.82802e-07
9.61303e-07
9.38195e-07
9.13771e-07
8.88346e-07
8.62301e-07
8.3685e-07
8.12631e-07
7.8975e-07
7.68411e-07
7.48786e-07
7.31022e-07
7.1524e-07
7.01541e-07
6.90004e-07
6.80691e-07
6.73639e-07
6.68861e-07
6.66335e-07
6.47162e-07
6.42248e-07
6.39577e-07
6.39234e-07
6.41265e-07
6.45681e-07
6.52457e-07
6.61528e-07
6.72799e-07
6.8614e-07
7.01393e-07
7.18377e-07
7.36886e-07
7.56698e-07
7.77576e-07
7.99273e-07
8.21533e-07
8.44098e-07
8.66706e-07
8.891e-07
9.11023e-07
9.32226e-07
9.52467e-07
9.71512e-07
9.89137e-07
1.00513e-06
1.01929e-06
1.03144e-06
1.0414e-06
1.04901e-06
1.05414e-06
1.05666e-06
1.05649e-06
1.05354e-06
1.04777e-06
1.03916e-06
1.02772e-06
1.01351e-06
9.9662e-07
9.77179e-07
9.55364e-07
9.31392e-07
9.05522e-07
8.78049e-07
8.49298e-07
8.19617e-07
7.8956e-07
7.60593e-07
7.33318e-07
7.07768e-07
6.84157e-07
6.62659e-07
6.43417e-07
6.26547e-07
6.1214e-07
6.00273e-07
5.91003e-07
5.84371e-07
5.80394e-07
5.79057e-07
5.76591e-07
5.72639e-07
5.71038e-07
5.71892e-07
5.7527e-07
5.81205e-07
5.89696e-07
6.007e-07
6.14142e-07
6.29907e-07
6.4785e-07
6.67795e-07
6.89536e-07
7.12848e-07
7.37483e-07
7.63177e-07
7.89658e-07
8.16641e-07
8.43843e-07
8.70975e-07
8.97754e-07
9.23901e-07
9.49143e-07
9.73218e-07
9.95873e-07
1.01687e-06
1.03598e-06
1.05299e-06
1.0677e-06
1.07994e-06
1.08955e-06
1.09638e-06
1.10031e-06
1.10126e-06
1.09915e-06
1.09397e-06
1.08572e-06
1.07445e-06
1.06023e-06
1.04322e-06
1.02359e-06
1.00157e-06
9.77434e-07
9.51483e-07
9.24059e-07
8.95524e-07
8.66319e-07
8.3787e-07
8.10905e-07
7.85523e-07
7.61933e-07
7.4031e-07
7.20797e-07
7.03513e-07
6.88556e-07
6.76004e-07
6.65919e-07
6.58344e-07
6.53291e-07
6.50742e-07
6.30411e-07
6.24925e-07
6.21921e-07
6.21497e-07
6.23711e-07
6.28574e-07
6.36059e-07
6.46094e-07
6.58571e-07
6.73347e-07
6.90243e-07
7.09055e-07
7.29557e-07
7.51498e-07
7.74617e-07
7.98639e-07
8.23283e-07
8.48263e-07
8.73292e-07
8.98089e-07
9.22372e-07
9.4587e-07
9.68319e-07
9.89465e-07
1.00906e-06
1.02688e-06
1.04271e-06
1.05633e-06
1.06756e-06
1.07623e-06
1.08217e-06
1.08526e-06
1.08537e-06
1.08242e-06
1.07633e-06
1.06709e-06
1.0547e-06
1.0392e-06
1.02068e-06
9.99293e-07
9.75216e-07
9.48696e-07
9.20023e-07
8.89533e-07
8.576e-07
8.24624e-07
7.91229e-07
7.59114e-07
7.28982e-07
7.00851e-07
6.74941e-07
6.51423e-07
6.30428e-07
6.12062e-07
5.96409e-07
5.83537e-07
5.73506e-07
5.66358e-07
5.62118e-07
5.60777e-07
5.58042e-07
5.53502e-07
5.51543e-07
5.52284e-07
5.5581e-07
5.62162e-07
5.71339e-07
5.833e-07
5.9796e-07
6.15195e-07
6.34841e-07
6.56704e-07
6.80554e-07
7.0614e-07
7.33185e-07
7.61399e-07
7.90477e-07
8.20108e-07
8.49975e-07
8.79765e-07
9.09166e-07
9.37872e-07
9.65587e-07
9.92024e-07
1.01691e-06
1.03998e-06
1.06099e-06
1.07971e-06
1.09591e-06
1.10941e-06
1.12002e-06
1.12757e-06
1.13194e-06
1.13301e-06
1.1307e-06
1.12497e-06
1.11582e-06
1.10328e-06
1.08746e-06
1.06848e-06
1.04655e-06
1.02194e-06
9.94929e-07
9.65889e-07
9.35206e-07
9.03297e-07
8.70672e-07
8.38998e-07
8.09103e-07
7.81066e-07
7.55101e-07
7.31378e-07
7.10032e-07
6.91173e-07
6.74891e-07
6.61264e-07
6.50357e-07
6.42214e-07
6.36858e-07
6.34273e-07
6.12787e-07
6.06676e-07
6.03307e-07
6.02792e-07
6.05196e-07
6.10536e-07
6.18779e-07
6.29848e-07
6.43618e-07
6.59929e-07
6.78583e-07
6.99351e-07
7.21978e-07
7.46191e-07
7.71697e-07
7.98192e-07
8.25368e-07
8.52912e-07
8.80509e-07
9.07851e-07
9.34634e-07
9.60563e-07
9.85352e-07
1.00872e-06
1.03042e-06
1.05018e-06
1.06778e-06
1.08298e-06
1.09558e-06
1.10539e-06
1.11223e-06
1.11595e-06
1.1164e-06
1.11348e-06
1.10712e-06
1.09725e-06
1.08387e-06
1.06703e-06
1.04681e-06
1.02335e-06
9.96858e-07
9.67604e-07
9.35914e-07
9.02172e-07
8.66805e-07
8.30278e-07
7.93289e-07
7.57803e-07
7.24635e-07
6.93786e-07
6.65471e-07
6.3985e-07
6.17037e-07
5.97118e-07
5.80164e-07
5.66235e-07
5.55389e-07
5.47677e-07
5.43132e-07
5.41757e-07
5.38713e-07
5.33528e-07
5.31168e-07
5.31774e-07
5.35444e-07
5.42228e-07
5.52129e-07
5.65104e-07
5.81059e-07
5.99857e-07
6.21318e-07
6.45224e-07
6.71321e-07
6.99327e-07
7.28939e-07
7.59831e-07
7.91668e-07
8.24107e-07
8.56801e-07
8.89406e-07
9.21581e-07
9.52995e-07
9.83324e-07
1.01226e-06
1.0395e-06
1.06477e-06
1.0878e-06
1.10833e-06
1.12613e-06
1.14098e-06
1.15267e-06
1.16102e-06
1.16588e-06
1.16712e-06
1.16462e-06
1.15834e-06
1.14826e-06
1.1344e-06
1.11685e-06
1.09577e-06
1.07138e-06
1.04395e-06
1.01384e-06
9.81455e-07
9.4724e-07
9.11681e-07
8.75369e-07
8.40242e-07
8.07234e-07
7.764e-07
7.47948e-07
7.22036e-07
6.98782e-07
6.7828e-07
6.60612e-07
6.4585e-07
6.34063e-07
6.25304e-07
6.19607e-07
6.16965e-07
5.94328e-07
5.8754e-07
5.83772e-07
5.83153e-07
5.85758e-07
5.91606e-07
6.00659e-07
6.12831e-07
6.27983e-07
6.45933e-07
6.6646e-07
6.8931e-07
7.14199e-07
7.40823e-07
7.6886e-07
7.97976e-07
8.27831e-07
8.58082e-07
8.88389e-07
9.18416e-07
9.47834e-07
9.76325e-07
1.00358e-06
1.0293e-06
1.0532e-06
1.07502e-06
1.0945e-06
1.11138e-06
1.12546e-06
1.1365e-06
1.14433e-06
1.14875e-06
1.14961e-06
1.14678e-06
1.14016e-06
1.12968e-06
1.11531e-06
1.09708e-06
1.07507e-06
1.04943e-06
1.02037e-06
9.88196e-07
9.53268e-07
9.16025e-07
8.7696e-07
8.36612e-07
7.95765e-07
7.56683e-07
7.20304e-07
6.86607e-07
6.55795e-07
6.28004e-07
6.03321e-07
5.81803e-07
5.63499e-07
5.4846e-07
5.36743e-07
5.28409e-07
5.23509e-07
5.22063e-07
5.18662e-07
5.12773e-07
5.0997e-07
5.10416e-07
5.14225e-07
5.21458e-07
5.3212e-07
5.46166e-07
5.63493e-07
5.8395e-07
6.07337e-07
6.33412e-07
6.61894e-07
6.92469e-07
7.24799e-07
7.58528e-07
7.93283e-07
8.28689e-07
8.64366e-07
8.99938e-07
9.35035e-07
9.69297e-07
1.00238e-06
1.03394e-06
1.06367e-06
1.09126e-06
1.11642e-06
1.13887e-06
1.15837e-06
1.17466e-06
1.18752e-06
1.19675e-06
1.20217e-06
1.20361e-06
1.20096e-06
1.19414e-06
1.18309e-06
1.16785e-06
1.14849e-06
1.12517e-06
1.09814e-06
1.06769e-06
1.03423e-06
9.98222e-07
9.60188e-07
9.20689e-07
8.80413e-07
8.41604e-07
8.05308e-07
7.71545e-07
7.40509e-07
7.12333e-07
6.87109e-07
6.64907e-07
6.45792e-07
6.29834e-07
6.17105e-07
6.07673e-07
6.01588e-07
5.98859e-07
5.75076e-07
5.67556e-07
5.63357e-07
5.62623e-07
5.6544e-07
5.71828e-07
5.81745e-07
5.95093e-07
6.11716e-07
6.3141e-07
6.53928e-07
6.78987e-07
7.06272e-07
7.35447e-07
7.66157e-07
7.98036e-07
8.30712e-07
8.63812e-07
8.96966e-07
9.29811e-07
9.61992e-07
9.93168e-07
1.02301e-06
1.05119e-06
1.07742e-06
1.1014e-06
1.12286e-06
1.14154e-06
1.15718e-06
1.16955e-06
1.17845e-06
1.18366e-06
1.185e-06
1.18232e-06
1.17549e-06
1.16442e-06
1.14906e-06
1.12941e-06
1.10555e-06
1.07761e-06
1.04584e-06
1.01055e-06
9.72156e-07
9.31151e-07
8.8811e-07
8.43656e-07
7.98674e-07
7.55765e-07
7.16008e-07
6.79346e-07
6.45961e-07
6.15952e-07
5.89363e-07
5.66211e-07
5.46516e-07
5.30314e-07
5.17665e-07
5.08645e-07
5.03328e-07
5.01762e-07
4.97953e-07
4.91298e-07
4.88009e-07
4.88272e-07
4.92215e-07
4.99912e-07
5.11373e-07
5.26546e-07
5.45322e-07
5.67534e-07
5.9296e-07
6.21331e-07
6.52334e-07
6.85625e-07
7.20827e-07
7.57546e-07
7.95376e-07
8.33903e-07
8.72713e-07
9.11398e-07
9.49558e-07
9.86805e-07
1.02277e-06
1.05708e-06
1.08941e-06
1.11943e-06
1.14683e-06
1.17131e-06
1.1926e-06
1.21044e-06
1.22456e-06
1.23475e-06
1.2408e-06
1.24252e-06
1.23975e-06
1.2324e-06
1.22038e-06
1.20371e-06
1.18245e-06
1.15676e-06
1.1269e-06
1.09321e-06
1.05614e-06
1.01623e-06
9.74072e-07
9.30328e-07
8.858e-07
8.43079e-07
8.03328e-07
7.6652e-07
7.32821e-07
7.02324e-07
6.75081e-07
6.51131e-07
6.30516e-07
6.13299e-07
5.99559e-07
5.89387e-07
5.82857e-07
5.80004e-07
5.55076e-07
5.46772e-07
5.42108e-07
5.4125e-07
5.4429e-07
5.51253e-07
5.62091e-07
5.7669e-07
5.94875e-07
6.16418e-07
6.41044e-07
6.68438e-07
6.98253e-07
7.30117e-07
7.6364e-07
7.98421e-07
8.34056e-07
8.70138e-07
9.0627e-07
9.42058e-07
9.77125e-07
1.0111e-06
1.04364e-06
1.0744e-06
1.10306e-06
1.12931e-06
1.15285e-06
1.17341e-06
1.19072e-06
1.20452e-06
1.21458e-06
1.22067e-06
1.22258e-06
1.22012e-06
1.21315e-06
1.20152e-06
1.18518e-06
1.16409e-06
1.13832e-06
1.10799e-06
1.07336e-06
1.03476e-06
9.92653e-07
9.47612e-07
9.00295e-07
8.51432e-07
8.02024e-07
7.55053e-07