/*--------------------------------*- C++ -*----------------------------------*\
| =========                 |                                                 |
| \\      /  F ield         | OpenFOAM: The Open Source CFD Toolbox           |
|  \\    /   O peration     | Version:  5.x                                   |
|   \\  /    A nd           | Web:      www.OpenFOAM.org                      |
|    \\/     M anipulation  |                                                 |
\*---------------------------------------------------------------------------*/
FoamFile
{
    version     2.0;
    format      ascii;
    class       volVectorField;
    location    "300/subsurface";
    object      UMean;
}
// * * * * * * * * * * * * * * * * * * * * * * * * * * * * * * * * * * * * * //

dimensions      [0 1 -1 0 0 0 0];

internalField   nonuniform List<vector> 
7200
(
(1.0106e-06 8.04946e-08 7.72109e-26)
(9.16694e-07 7.56396e-08 -2.05673e-22)
(8.29513e-07 6.99486e-08 -2.10144e-22)
(7.50278e-07 6.34668e-08 -0)
(6.79889e-07 5.62509e-08 -3.34174e-25)
(6.19152e-07 4.83677e-08 -3.68097e-27)
(5.68768e-07 3.98934e-08 -0)
(5.29324e-07 3.09125e-08 -0)
(5.01283e-07 2.15172e-08 -0)
(4.8498e-07 1.1806e-08 -0)
(4.80613e-07 1.88274e-09 -3.80891e-25)
(4.88244e-07 -8.145e-09 -0)
(5.07798e-07 -1.81669e-08 -0)
(5.39057e-07 -2.80717e-08 4.07439e-25)
(5.81671e-07 -3.77484e-08 4.15611e-25)
(6.35158e-07 -4.70879e-08 -4.2327e-25)
(6.98908e-07 -5.59845e-08 -0)
(7.72195e-07 -6.43369e-08 -1.75585e-24)
(8.54185e-07 -7.20502e-08 1.30768e-24)
(9.43946e-07 -7.90363e-08 4.46971e-25)
(1.04046e-06 -8.52156e-08 -0)
(1.14263e-06 -9.05173e-08 -0)
(1.24931e-06 -9.4881e-08 -3.18506e-24)
(1.3593e-06 -9.82564e-08 3.62849e-24)
(1.47137e-06 -1.00604e-07 4.09342e-24)
(1.58427e-06 -1.01897e-07 -1.89828e-27)
(1.69675e-06 -1.02118e-07 -3.61142e-24)
(1.80758e-06 -1.01263e-07 -4.49408e-25)
(1.91554e-06 -9.93375e-08 -4.45151e-25)
(2.01945e-06 -9.636e-08 -4.39954e-25)
(2.1182e-06 -9.23587e-08 3.87233e-24)
(2.21071e-06 -8.73728e-08 -4.73355e-25)
(2.29599e-06 -8.14512e-08 -3.7893e-24)
(2.37315e-06 -7.46523e-08 -0)
(2.44135e-06 -6.7043e-08 -0)
(2.49989e-06 -5.86984e-08 -0)
(2.54815e-06 -4.97008e-08 -0)
(2.58563e-06 -4.01389e-08 -0)
(2.61195e-06 -3.01071e-08 -3.6194e-25)
(2.62684e-06 -1.97044e-08 3.51392e-25)
(2.63015e-06 -9.03366e-09 -0)
(2.62186e-06 1.79925e-09 -3.30354e-25)
(2.60205e-06 1.26867e-08 -2.03318e-22)
(2.57095e-06 2.35201e-08 -2.15766e-22)
(2.52889e-06 3.41915e-08 1.90636e-22)
(2.47614e-06 4.45991e-08 2.03207e-22)
(2.4145e-06 5.44872e-08 5.68616e-25)
(2.34325e-06 6.36534e-08 -4.44489e-24)
(2.26296e-06 7.19156e-08 5.59729e-24)
(2.17513e-06 7.91492e-08 1.78046e-22)
(2.0806e-06 8.52818e-08 1.83047e-22)
(1.98035e-06 9.02518e-08 3.23909e-24)
(1.87545e-06 9.40109e-08 -2.1835e-24)
(1.76702e-06 9.65246e-08 -0)
(1.6562e-06 9.77732e-08 1.08818e-24)
(1.54418e-06 9.77514e-08 -0)
(1.43217e-06 9.64692e-08 -0)
(1.32138e-06 9.39516e-08 1.13593e-24)
(1.21301e-06 9.02384e-08 -1.16133e-24)
(1.10854e-06 8.5384e-08 -0)
(1.00648e-06 8.07195e-08 -0)
(9.12314e-07 7.58563e-08 -0)
(8.24877e-07 7.01569e-08 -0)
(7.45399e-07 6.36664e-08 -0)
(6.74779e-07 5.64417e-08 -0)
(6.13824e-07 4.85495e-08 1.01851e-24)
(5.63236e-07 4.00661e-08 -6.80232e-25)
(5.23601e-07 3.1076e-08 7.16914e-25)
(4.95384e-07 2.16713e-08 -1.07639e-24)
(4.78917e-07 1.19506e-08 3.71161e-25)
(4.74402e-07 2.01753e-09 1.9222e-24)
(4.81899e-07 -8.02016e-09 4.08776e-26)
(5.01333e-07 -1.80523e-08 -3.18385e-24)
(5.32488e-07 -2.79676e-08 1.19927e-24)
(5.75013e-07 -3.76551e-08 -2.72213e-22)
(6.28425e-07 -4.70058e-08 -2.87125e-22)
(6.92117e-07 -5.5914e-08 1.69972e-24)
(7.65363e-07 -6.42785e-08 -0)
(8.47328e-07 -7.20043e-08 -0)
(9.3708e-07 -7.90034e-08 -4.47029e-25)
(1.0336e-06 -8.51962e-08 -0)
(1.1358e-06 -9.05121e-08 -0)
(1.24253e-06 -9.48903e-08 -0)
(1.35258e-06 -9.82808e-08 -0)
(1.46473e-06 -1.00644e-07 -0)
(1.57773e-06 -1.01953e-07 -0)
(1.69034e-06 -1.02191e-07 -0)
(1.80131e-06 -1.01352e-07 -0)
(1.90942e-06 -9.94435e-08 -2.88309e-22)
(2.01352e-06 -9.64831e-08 -3.04675e-22)
(2.11246e-06 -9.24991e-08 3.04919e-24)
(2.20518e-06 -8.75305e-08 -0)
(2.2907e-06 -8.16261e-08 -0)
(2.3681e-06 -7.48442e-08 -3.25627e-24)
(2.43658e-06 -6.72517e-08 3.64865e-24)
(2.4954e-06 -5.89235e-08 -3.10798e-24)
(2.54396e-06 -4.99418e-08 3.09808e-24)
(2.58175e-06 -4.03952e-08 -0)
(2.6084e-06 -3.0378e-08 -0)
(2.62362e-06 -1.99892e-08 -3.52427e-25)
(2.62728e-06 -9.33156e-09 5.40015e-24)
(2.61934e-06 1.48918e-09 -5.05179e-24)
(2.5999e-06 1.23654e-08 5.07743e-24)
(2.56917e-06 2.31886e-08 -5.06161e-24)
(2.52749e-06 3.38508e-08 -3.01567e-25)
(2.47511e-06 4.42503e-08 -0)
(2.41385e-06 5.41333e-08 -0)
(2.34298e-06 6.32976e-08 -0)
(2.26307e-06 7.15601e-08 -1.10922e-24)
(2.17561e-06 7.8796e-08 1.09786e-24)
(2.08145e-06 8.49329e-08 -2.17465e-24)
(1.98157e-06 8.99091e-08 3.28344e-24)
(1.87704e-06 9.36762e-08 1.08334e-24)
(1.76896e-06 9.61997e-08 -2.17931e-24)
(1.65848e-06 9.74596e-08 3.29725e-24)
(1.5468e-06 9.74506e-08 -0)
(1.43511e-06 9.61825e-08 -1.84107e-22)
(1.32463e-06 9.36802e-08 -1.90633e-22)
(1.21656e-06 8.99835e-08 -0)
(1.11237e-06 8.51466e-08 1.19595e-24)
(9.92658e-07 2.40348e-07 -4.15207e-22)
(8.97796e-07 2.25236e-07 -2.09282e-22)
(8.07744e-07 2.07456e-07 6.47431e-22)
(7.2584e-07 1.87172e-07 4.42304e-22)
(6.53027e-07 1.64582e-07 -4.48966e-22)
(5.90149e-07 1.39914e-07 -4.64648e-22)
(5.37941e-07 1.13429e-07 7.13138e-25)
(4.97021e-07 8.54122e-08 7.44681e-25)
(4.67879e-07 5.61731e-08 -7.4208e-25)
(4.5087e-07 2.60405e-08 7.71663e-25)
(4.46211e-07 -4.64143e-09 5.21505e-22)
(4.53973e-07 -3.55177e-08 5.48218e-22)
(4.74084e-07 -6.62274e-08 -8.06318e-25)
(5.06329e-07 -9.64083e-08 1.29236e-24)
(5.50347e-07 -1.25703e-07 -3.00933e-24)
(6.05643e-07 -1.53761e-07 4.39694e-25)
(6.7159e-07 -1.80248e-07 -0)
(7.47435e-07 -2.04847e-07 9.1418e-25)
(8.32315e-07 -2.27262e-07 4.59409e-25)
(9.25264e-07 -2.47227e-07 -3.27541e-24)
(1.02522e-06 -2.64502e-07 -6.13623e-22)
(1.13106e-06 -2.7888e-07 -6.4788e-22)
(1.24158e-06 -2.90191e-07 3.33533e-24)
(1.35553e-06 -2.983e-07 -3.79589e-24)
(1.47164e-06 -3.03108e-07 -1.43159e-24)
(1.58862e-06 -3.04558e-07 3.79087e-24)
(1.70516e-06 -3.02627e-07 -3.77841e-24)
(1.81998e-06 -2.97334e-07 4.66865e-25)
(1.93181e-06 -2.88734e-07 4.15827e-24)
(2.03945e-06 -2.76917e-07 -3.22675e-24)
(2.14171e-06 -2.62009e-07 5.88956e-22)
(2.2375e-06 -2.4417e-07 6.12535e-22)
(2.32579e-06 -2.23588e-07 -5.64417e-22)
(2.40563e-06 -2.00481e-07 -5.88915e-22)
(2.47619e-06 -1.75094e-07 -6.69176e-24)
(2.5367e-06 -1.47692e-07 6.53211e-24)
(2.58654e-06 -1.18565e-07 -7.47868e-26)
(2.6252e-06 -8.80149e-08 -6.19328e-24)
(2.65226e-06 -5.63622e-08 4.5512e-25)
(2.66745e-06 -2.39365e-08 5.4746e-24)
(2.67062e-06 8.92407e-09 -4.55932e-22)
(2.66174e-06 4.18768e-08 -4.73057e-22)
(2.64091e-06 7.45772e-08 2.31198e-22)
(2.60835e-06 1.06683e-07 2.04246e-22)
(2.5644e-06 1.37855e-07 -6.15414e-22)
(2.50822e-06 1.67798e-07 -6.04891e-22)
(2.44514e-06 1.95065e-07 -1.76234e-24)
(2.37078e-06 2.18564e-07 -0)
(2.28615e-06 2.38763e-07 -1.15201e-24)
(2.19463e-06 2.55991e-07 -1.92161e-22)
(2.09639e-06 2.7014e-07 1.73993e-22)
(1.99246e-06 2.81121e-07 3.75654e-22)
(1.88394e-06 2.88873e-07 -2.25121e-24)
(1.77196e-06 2.93374e-07 1.0984e-24)
(1.65771e-06 2.94633e-07 -2.23514e-24)
(1.54241e-06 2.92692e-07 -0)
(1.42727e-06 2.87629e-07 2.28952e-24)
(1.31354e-06 2.79551e-07 -3.51877e-24)
(1.20244e-06 2.686e-07 1.21165e-24)
(1.09759e-06 2.54943e-07 -2.45312e-24)
(9.88507e-07 2.41013e-07 7.92874e-26)
(8.93382e-07 2.25873e-07 8.23894e-26)
(8.03072e-07 2.08063e-07 -1.60817e-25)
(7.20923e-07 1.87749e-07 3.36614e-25)
(6.47878e-07 1.65127e-07 -3.35421e-25)
(5.84781e-07 1.40427e-07 -3.48891e-25)
(5.32369e-07 1.1391e-07 -0)
(4.91257e-07 8.58597e-08 -7.43297e-25)
(4.61938e-07 5.65867e-08 -4.94046e-22)
(4.44765e-07 2.64196e-08 -5.18782e-22)
(4.39956e-07 -4.29756e-09 3.84197e-25)
(4.47583e-07 -3.52098e-08 -1.6413e-24)
(4.67575e-07 -6.59561e-08 -4.29469e-26)
(4.99713e-07 -9.61747e-08 2.09574e-24)
(5.43641e-07 -1.25507e-07 2.90666e-22)
(5.98863e-07 -1.53605e-07 2.88631e-22)
(6.6475e-07 -1.80133e-07 1.80838e-24)
(7.40553e-07 -2.04774e-07 -1.80226e-24)
(8.25407e-07 -2.27233e-07 6.03733e-22)
(9.18346e-07 -2.47242e-07 6.3768e-22)
(1.01831e-06 -2.64562e-07 1.88901e-24)
(1.12418e-06 -2.78987e-07 -5.6814e-24)
(1.23474e-06 -2.90347e-07 3.78606e-24)
(1.34875e-06 -2.98504e-07 6.23216e-22)
(1.46495e-06 -3.03362e-07 6.53408e-22)
(1.58202e-06 -3.04863e-07 -0)
(1.69869e-06 -3.02983e-07 6.17594e-22)
(1.81364e-06 -2.97742e-07 6.48553e-22)
(1.92564e-06 -2.89194e-07 3.12151e-22)
(2.03346e-06 -2.77428e-07 2.92908e-22)
(2.13592e-06 -2.62572e-07 4.09334e-24)
(2.23193e-06 -2.44783e-07 3.53785e-24)
(2.32045e-06 -2.24251e-07 -3.52645e-24)
(2.40055e-06 -2.01192e-07 -0)
(2.47137e-06 -1.75851e-07 -3.73826e-24)
(2.53217e-06 -1.48494e-07 3.30919e-24)
(2.58232e-06 -1.19409e-07 -3.15337e-24)
(2.62128e-06 -8.88982e-08 3.14337e-24)
(2.64867e-06 -5.7282e-08 -2.97773e-24)
(2.66421e-06 -2.48896e-08 3.33448e-24)
(2.66773e-06 7.94113e-09 -2.79976e-24)
(2.65921e-06 4.08675e-08 2.44667e-24)
(2.63875e-06 7.35453e-08 -0)
(2.60657e-06 1.05632e-07 -0)
(2.563e-06 1.36789e-07 5.24146e-24)
(2.50722e-06 1.66721e-07 -4.91292e-24)
(2.4445e-06 1.93986e-07 -0)
(2.37052e-06 2.17493e-07 -2.30498e-24)
(2.28627e-06 2.37707e-07 5.7672e-24)
(2.19513e-06 2.54952e-07 3.56691e-22)
(2.09727e-06 2.69124e-07 3.81092e-22)
(1.99371e-06 2.80129e-07 -5.59216e-24)
(1.88555e-06 2.87911e-07 1.13116e-24)
(1.77393e-06 2.92444e-07 3.60297e-22)
(1.66003e-06 2.93737e-07 3.73655e-22)
(1.54506e-06 2.91833e-07 3.6663e-22)
(1.43025e-06 2.86807e-07 2.06213e-22)
(1.31683e-06 2.78769e-07 -1.97066e-22)
(1.20603e-06 2.67858e-07 -0)
(1.10145e-06 2.54244e-07 1.2145e-24)
(9.58333e-07 4.00702e-07 4.32065e-22)
(8.61778e-07 3.75595e-07 1.30174e-21)
(7.66263e-07 3.46008e-07 8.73811e-22)
(6.79276e-07 3.12218e-07 -3.876e-24)
(6.01833e-07 2.74554e-07 4.71192e-22)
(5.34848e-07 2.33399e-07 4.7932e-22)
(4.7912e-07 1.89186e-07 4.85644e-22)
(4.35326e-07 1.42392e-07 -4.91306e-22)
(4.04006e-07 9.35367e-08 -1.04525e-21)
(3.85557e-07 4.31698e-08 1.05495e-21)
(3.80228e-07 -8.1308e-09 5.54284e-22)
(3.88113e-07 -5.97688e-08 -1.66997e-21)
(4.09152e-07 -1.11137e-07 -2.84333e-23)
(4.43127e-07 -1.61628e-07 1.20077e-21)
(4.89668e-07 -2.10637e-07 -8.84984e-25)
(5.48255e-07 -2.57579e-07 -0)
(6.18228e-07 -3.01888e-07 -0)
(6.9879e-07 -3.43031e-07 6.28152e-22)
(7.89024e-07 -3.80513e-07 6.61895e-22)
(8.87899e-07 -4.13883e-07 2.94345e-24)
(9.94289e-07 -4.4274e-07 6.64656e-22)
(1.10698e-06 -4.66739e-07 6.45937e-22)
(1.22471e-06 -4.85593e-07 -0)
(1.34612e-06 -4.99075e-07 1.32161e-21)
(1.46987e-06 -5.07023e-07 7.19082e-22)
(1.59457e-06 -5.0934e-07 -3.61083e-23)
(1.71882e-06 -5.05993e-07 6.89833e-22)
(1.84126e-06 -4.97013e-07 1.29399e-21)
(1.96053e-06 -4.82492e-07 1.3478e-21)
(2.07533e-06 -4.62587e-07 9.73513e-25)
(2.18441e-06 -4.37508e-07 -2.50951e-21)
(2.28659e-06 -4.07524e-07 -2.53596e-21)
(2.38077e-06 -3.72953e-07 6.25041e-22)
(2.46595e-06 -3.34161e-07 5.74484e-22)
(2.54121e-06 -2.91558e-07 -8.81829e-25)
(2.60576e-06 -2.45592e-07 -8.58848e-25)
(2.65892e-06 -1.96745e-07 5.40845e-22)
(2.70013e-06 -1.45527e-07 5.52623e-22)
(2.72896e-06 -9.24721e-08 3.1765e-24)
(2.74511e-06 -3.81336e-08 -2.23092e-24)
(2.7484e-06 1.69226e-08 5.13135e-22)
(2.73881e-06 7.21225e-08 4.52486e-22)
(2.71643e-06 1.26889e-07 -0)
(2.6815e-06 1.80648e-07 -0)
(2.63436e-06 2.32833e-07 4.47323e-22)
(2.57208e-06 2.82972e-07 3.94828e-22)
(2.50664e-06 3.28521e-07 1.21857e-24)
(2.42655e-06 3.6757e-07 2.35052e-24)
(2.33362e-06 4.00983e-07 -2.37597e-24)
(2.23501e-06 4.29401e-07 -7.28363e-22)
(2.12958e-06 4.52675e-07 -1.16098e-21)
(2.01844e-06 4.70663e-07 -3.67485e-22)
(1.90275e-06 4.83276e-07 -2.24241e-24)
(1.78373e-06 4.9048e-07 -2.31235e-24)
(1.66262e-06 4.92299e-07 4.59015e-24)
(1.5407e-06 4.88809e-07 3.69804e-22)
(1.41924e-06 4.80143e-07 3.84954e-22)
(1.29954e-06 4.66486e-07 3.03459e-24)
(1.18287e-06 4.48076e-07 -0)
(1.07703e-06 4.25199e-07 5.06249e-24)
(9.54105e-07 4.01793e-07 4.21863e-22)
(8.57299e-07 3.76639e-07 4.30697e-22)
(7.61523e-07 3.47004e-07 -0)
(6.7429e-07 3.13164e-07 -4.48346e-22)
(5.96613e-07 2.75449e-07 -4.64661e-22)
(5.29408e-07 2.34242e-07 -0)
(4.73474e-07 1.89975e-07 -7.48343e-25)
(4.29487e-07 1.43128e-07 -4.99239e-22)
(3.97988e-07 9.42171e-08 3.60694e-24)
(3.79374e-07 4.3794e-08 5.2921e-22)
(3.73894e-07 -7.56377e-09 -7.97414e-25)
(3.81643e-07 -5.92602e-08 1.34653e-26)
(4.02559e-07 -1.10688e-07 -1.75154e-24)
(4.36427e-07 -1.6124e-07 1.74553e-24)
(4.82875e-07 -2.10312e-07 2.73722e-24)
(5.41386e-07 -2.57318e-07 -1.82286e-24)
(6.11297e-07 -3.01694e-07 -1.2395e-21)
(6.91813e-07 -3.42905e-07 -1.30114e-21)
(7.82018e-07 -3.80458e-07 -6.52665e-22)
(8.80882e-07 -4.13901e-07 8.9756e-24)
(9.87278e-07 -4.42834e-07 -6.25028e-22)
(1.1e-06 -4.6691e-07 -1.36665e-21)
(1.21776e-06 -4.85842e-07 -0)
(1.33924e-06 -4.99405e-07 -1.99636e-21)
(1.46307e-06 -5.07436e-07 -2.0276e-21)
(1.58787e-06 -5.09838e-07 1.00978e-24)
(1.71224e-06 -5.06576e-07 -6.71639e-22)
(1.83482e-06 -4.97681e-07 -1.28478e-21)
(1.95425e-06 -4.83247e-07 5.99893e-22)
(2.06923e-06 -4.63428e-07 1.33737e-21)
(2.17851e-06 -4.38434e-07 -0)
(2.28091e-06 -4.08534e-07 3.7152e-24)
(2.37533e-06 -3.74046e-07 -2.77772e-24)
(2.46077e-06 -3.35335e-07 -5.82953e-22)
(2.53631e-06 -2.92809e-07 -6.13404e-22)
(2.60115e-06 -2.46917e-07 6.8491e-24)
(2.65462e-06 -1.9814e-07 5.34718e-22)
(2.69615e-06 -1.46987e-07 5.63792e-22)
(2.72532e-06 -9.39932e-08 -7.06976e-24)
(2.74181e-06 -3.97101e-08 3.08784e-24)
(2.74547e-06 1.52965e-08 -2.90094e-24)
(2.73625e-06 7.04528e-08 3.60191e-24)
(2.71425e-06 1.25182e-07 6.85e-25)
(2.6797e-06 1.7891e-07 -8.43712e-22)
(2.63295e-06 2.3107e-07 -8.90572e-22)
(2.57109e-06 2.81191e-07 5.04395e-24)
(2.506e-06 3.26738e-07 1.20066e-24)
(2.4263e-06 3.658e-07 -2.36077e-24)
(2.33377e-06 3.99238e-07 8.15708e-27)
(2.23554e-06 4.27687e-07 -3.99968e-22)
(2.1305e-06 4.50998e-07 -3.70355e-22)
(2.01974e-06 4.69029e-07 7.24914e-22)
(1.90442e-06 4.8169e-07 7.61442e-22)
(1.78576e-06 4.88948e-07 -3.89223e-22)
(1.665e-06 4.90823e-07 -3.78501e-22)
(1.54342e-06 4.87394e-07 -3.93567e-22)
(1.42229e-06 4.78792e-07 -3.7001e-22)
(1.3029e-06 4.65201e-07 5.00934e-24)
(1.18653e-06 4.46859e-07 6.15907e-25)
(1.08095e-06 4.24051e-07 -2.56881e-24)
(9.08618e-07 5.65115e-07 -1.28505e-24)
(8.09778e-07 5.29868e-07 -8.99347e-22)
(7.06345e-07 4.88262e-07 -1.37413e-21)
(6.11981e-07 4.40681e-07 -4.68181e-22)
(5.27808e-07 3.87586e-07 -1.06666e-24)
(4.54839e-07 3.29515e-07 -2.20555e-24)
(3.9397e-07 2.67078e-07 -5.14052e-22)
(3.4596e-07 2.00949e-07 5.35919e-22)
(3.11426e-07 1.31863e-07 1.07162e-21)
(2.90828e-07 6.06013e-08 -1.11909e-21)
(2.84463e-07 -1.20145e-08 -1.12902e-21)
(2.9246e-07 -8.51353e-08 1.18474e-21)
(3.14774e-07 -1.57896e-07 -2.73353e-23)
(3.51191e-07 -2.29428e-07 -1.21721e-21)
(4.01323e-07 -2.98872e-07 -1.92062e-24)
(4.64619e-07 -3.65388e-07 -4.63721e-26)
(5.40369e-07 -4.28172e-07 3.94637e-24)
(6.27714e-07 -4.86461e-07 -6.74902e-22)
(7.25658e-07 -5.3955e-07 -6.64343e-22)
(8.33081e-07 -5.86796e-07 -3.87101e-26)
(9.48755e-07 -6.27628e-07 1.20956e-26)
(1.07136e-06 -6.61555e-07 2.07733e-24)
(1.1995e-06 -6.88169e-07 -2.10688e-24)
(1.33172e-06 -7.07151e-07 -1.42968e-21)
(1.46652e-06 -7.18273e-07 -6.52111e-22)
(1.6024e-06 -7.21397e-07 -3.12202e-23)
(1.73784e-06 -7.1648e-07 -6.72639e-22)
(1.87133e-06 -7.03568e-07 -1.41955e-21)
(2.00139e-06 -6.82797e-07 -1.3336e-21)
(2.12661e-06 -6.54389e-07 9.21088e-24)
(2.24562e-06 -6.18648e-07 2.04646e-21)
(2.35712e-06 -5.75957e-07 1.90268e-21)
(2.45991e-06 -5.26768e-07 4.82245e-24)
(2.5529e-06 -4.71604e-07 -5.64928e-24)
(2.63508e-06 -4.11047e-07 8.28545e-24)
(2.70559e-06 -3.45733e-07 -2.73841e-24)
(2.76367e-06 -2.76345e-07 -5.96977e-22)
(2.80872e-06 -2.03608e-07 -5.39055e-22)
(2.84025e-06 -1.28279e-07 1.63691e-24)
(2.85792e-06 -5.11414e-08 -3.89273e-24)
(2.86156e-06 2.70024e-08 3.09451e-24)
(2.8511e-06 1.0534e-07 1.46165e-24)
(2.82664e-06 1.83054e-07 9.02696e-22)
(2.78843e-06 2.59332e-07 9.3516e-22)
(2.73684e-06 3.33371e-07 -0)
(2.66582e-06 4.04548e-07 6.36192e-25)
(2.59721e-06 4.68953e-07 -0)
(2.50889e-06 5.2379e-07 -2.38634e-24)
(2.40382e-06 5.70481e-07 2.41225e-24)
(2.29488e-06 6.10052e-07 8.05573e-22)
(2.17898e-06 6.42341e-07 7.50462e-22)
(2.05731e-06 6.67162e-07 2.21872e-24)
(1.93115e-06 6.84407e-07 3.50964e-24)
(1.80181e-06 6.94041e-07 6.81099e-24)
(1.67064e-06 6.96108e-07 1.01262e-24)
(1.539e-06 6.90728e-07 -3.92167e-22)
(1.40825e-06 6.78097e-07 -3.88753e-22)
(1.27978e-06 6.58483e-07 -6.13777e-25)
(1.15491e-06 6.32227e-07 5.52921e-24)
(1.04764e-06 5.99738e-07 2.45293e-24)
(9.04282e-07 5.66619e-07 -4.39157e-22)
(8.05206e-07 5.31306e-07 -4.46512e-22)
(7.0151e-07 4.89634e-07 1.33914e-24)
(6.06897e-07 4.41984e-07 4.68296e-22)
(5.22488e-07 3.88818e-07 4.80228e-22)
(4.49297e-07 3.30675e-07 3.74129e-25)
(3.8822e-07 2.68165e-07 -1.14375e-24)
(3.40015e-07 2.01962e-07 5.25777e-22)
(3.05301e-07 1.328e-07 5.35642e-22)
(2.84536e-07 6.14618e-08 -3.33038e-24)
(2.78018e-07 -1.12321e-08 1.69407e-24)
(2.85876e-07 -8.44327e-08 -2.63747e-24)
(3.08065e-07 -1.57275e-07 -1.81097e-24)
(3.44372e-07 -2.28891e-07 -0)
(3.94408e-07 -2.9842e-07 9.76111e-25)
(4.57624e-07 -3.65025e-07 4.66666e-26)
(5.33309e-07 -4.279e-07 1.32655e-21)
(6.20605e-07 -4.86283e-07 1.30904e-21)
(7.18516e-07 -5.39469e-07 6.14215e-24)
(8.25924e-07 -5.86815e-07 -7.00028e-22)
(9.416e-07 -6.27751e-07 7.30814e-22)
(1.06422e-06 -6.61784e-07 1.36362e-21)
(1.1924e-06 -6.88508e-07 6.37434e-24)
(1.32468e-06 -7.07602e-07 1.43176e-21)
(1.45956e-06 -7.18838e-07 1.3689e-21)
(1.59554e-06 -7.2208e-07 -1.04907e-24)
(1.7311e-06 -7.17281e-07 3.17798e-24)
(1.86472e-06 -7.04489e-07 7.07479e-22)
(1.99495e-06 -6.83839e-07 -7.37329e-22)
(2.12035e-06 -6.55552e-07 -1.31207e-21)
(2.23956e-06 -6.19931e-07 -2.01427e-24)
(2.35129e-06 -5.77357e-07 -1.99802e-24)
(2.45432e-06 -5.28285e-07 -9.61555e-25)
(2.54757e-06 -4.73233e-07 6.47673e-22)
(2.63004e-06 -4.12785e-07 5.91788e-22)
(2.70085e-06 -3.47574e-07 -1.80998e-24)
(2.75925e-06 -2.78284e-07 -5.9594e-22)
(2.80463e-06 -2.05639e-07 -5.42316e-22)
(2.83651e-06 -1.30395e-07 -4.14935e-24)
(2.85455e-06 -5.33354e-08 1.58343e-24)
(2.85855e-06 2.47392e-08 -3.00327e-24)
(2.84848e-06 1.03016e-07 -6.37565e-25)
(2.82442e-06 1.80678e-07 -8.99712e-22)
(2.7866e-06 2.56914e-07 1.10989e-23)
(2.73541e-06 3.3092e-07 8.45454e-22)
(2.66484e-06 4.02072e-07 -0)
(2.59658e-06 4.66474e-07 -1.25025e-24)
(2.50865e-06 5.21331e-07 -0)
(2.404e-06 5.68058e-07 -7.05131e-24)
(2.29547e-06 6.07674e-07 -2.23282e-24)
(2.17995e-06 6.40016e-07 -0)
(2.05867e-06 6.64899e-07 -7.92061e-22)
(1.93289e-06 6.82212e-07 -7.55122e-22)
(1.80392e-06 6.9192e-07 -4.52625e-24)
(1.67311e-06 6.94068e-07 -5.72367e-24)
(1.54181e-06 6.88774e-07 -2.69073e-27)
(1.4114e-06 6.76231e-07 4.00827e-22)
(1.28323e-06 6.5671e-07 3.99116e-22)
(1.15866e-06 6.30548e-07 -4.92919e-24)
(1.05164e-06 5.98155e-07 -0)
(8.44155e-07 7.36594e-07 -1.7152e-21)
(7.42566e-07 6.90924e-07 -1.76201e-21)
(6.28836e-07 6.36907e-07 -0)
(5.24863e-07 5.7503e-07 -0)
(4.31906e-07 5.05888e-07 1.10329e-24)
(3.51112e-07 4.30175e-07 3.38316e-24)
(2.83503e-07 3.48685e-07 1.56833e-24)
(2.29952e-07 2.62297e-07 -1.61879e-24)
(1.91176e-07 1.71974e-07 -2.48261e-24)
(1.6772e-07 7.8741e-08 -8.45649e-25)
(1.59947e-07 -1.632e-08 -9.04822e-25)
(1.68032e-07 -1.12089e-07 -2.76824e-24)
(1.91955e-07 -2.07425e-07 9.23546e-25)
(2.31504e-07 -3.01179e-07 9.5649e-25)
(2.86273e-07 -3.92213e-07 -0)
(3.55667e-07 -4.79419e-07 2.06776e-24)
(4.38913e-07 -5.6173e-07 -4.13087e-24)
(5.35069e-07 -6.38139e-07 -4.25874e-24)
(6.43037e-07 -7.07713e-07 -4.32357e-24)
(7.61579e-07 -7.69604e-07 4.34515e-24)
(8.89333e-07 -8.2306e-07 -2.19462e-24)
(1.02483e-06 -8.67434e-07 4.46092e-24)
(1.16653e-06 -9.02191e-07 -2.24068e-24)
(1.31281e-06 -9.26913e-07 -6.78613e-24)
(1.46201e-06 -9.41303e-07 2.31615e-24)
(1.61245e-06 -9.45185e-07 -4.47771e-24)
(1.76244e-06 -9.38505e-07 -1.48643e-21)
(1.91031e-06 -9.21329e-07 -1.53605e-21)
(2.05443e-06 -8.93839e-07 5.75775e-26)
(2.19321e-06 -8.56332e-07 -6.4553e-24)
(2.32514e-06 -8.0921e-07 4.3479e-24)
(2.44878e-06 -7.52978e-07 -4.09974e-24)
(2.5628e-06 -6.88234e-07 4.17787e-24)
(2.66596e-06 -6.15666e-07 -1.9812e-24)
(2.75718e-06 -5.36037e-07 -0)
(2.83547e-06 -4.50183e-07 -0)
(2.90001e-06 -3.59002e-07 -1.8193e-24)
(2.95009e-06 -2.63442e-07 -3.53664e-24)
(2.98519e-06 -1.64497e-07 -3.34191e-24)
(3.00492e-06 -6.3192e-08 3.34011e-24)
(3.00907e-06 3.94231e-08 1.01431e-21)
(2.99756e-06 1.42284e-07 1.04365e-21)
(2.97048e-06 2.44324e-07 -8.46093e-23)
(2.92809e-06 3.44477e-07 5.11626e-23)
(2.8708e-06 4.41696e-07 -1.2093e-24)
(2.78834e-06 5.35219e-07 3.86095e-24)
(2.71592e-06 6.19452e-07 2.43991e-24)
(2.61691e-06 6.90612e-07 4.76982e-24)
(2.49587e-06 7.50868e-07 2.35604e-24)
(2.37347e-06 8.01727e-07 7.21326e-22)
(2.2439e-06 8.43046e-07 7.64198e-22)
(2.10851e-06 8.74606e-07 -2.33845e-25)
(1.9687e-06 8.96288e-07 -0)
(1.82592e-06 9.08069e-07 -4.6963e-24)
(1.68163e-06 9.10025e-07 -4.72959e-24)
(1.53732e-06 9.02326e-07 -8.74968e-24)
(1.39447e-06 8.85241e-07 -2.28818e-25)
(1.25455e-06 8.59131e-07 4.1482e-24)
(1.11899e-06 8.2445e-07 -5.11886e-24)
(1.01007e-06 7.81736e-07 -5.28198e-24)
(8.39681e-07 7.38497e-07 -0)
(7.37878e-07 6.92743e-07 1.69754e-25)
(6.23881e-07 6.3864e-07 -2.91014e-24)
(5.19656e-07 5.76676e-07 3.96591e-25)
(4.2646e-07 5.07444e-07 -1.82885e-24)
(3.45443e-07 4.31641e-07 -0)
(2.77623e-07 3.50058e-07 -1.54226e-24)
(2.23876e-07 2.63577e-07 1.67315e-26)
(1.84917e-07 1.73158e-07 -2.51498e-24)
(1.61292e-07 7.98294e-08 8.4883e-25)
(1.53363e-07 -1.53294e-08 -0)
(1.61306e-07 -1.11199e-07 -7.85328e-27)
(1.85102e-07 -2.06636e-07 1.88143e-24)
(2.24537e-07 -3.00495e-07 -0)
(2.79205e-07 -3.91636e-07 2.00731e-24)
(3.48514e-07 -4.78953e-07 8.07808e-27)
(4.31691e-07 -5.61378e-07 -2.05994e-24)
(5.27793e-07 -6.37905e-07 -2.1501e-24)
(6.35723e-07 -7.07602e-07 -4.33067e-24)
(7.54244e-07 -7.6962e-07 -0)
(8.81994e-07 -8.23206e-07 -2.24924e-24)
(1.01751e-06 -8.67716e-07 -0)
(1.15924e-06 -9.02612e-07 -2.2264e-24)
(1.30557e-06 -9.27477e-07 -0)
(1.45485e-06 -9.42014e-07 2.26194e-24)
(1.60538e-06 -9.46045e-07 -2.2545e-24)
(1.75549e-06 -9.39518e-07 -4.49541e-24)
(1.9035e-06 -9.22496e-07 -0)
(2.04778e-06 -8.95162e-07 2.17696e-24)
(2.18675e-06 -8.5781e-07 -6.52035e-24)
(2.31888e-06 -8.10842e-07 -2.05279e-24)
(2.44275e-06 -7.54763e-07 4.17939e-24)
(2.55701e-06 -6.90169e-07 2.69752e-21)
(2.66045e-06 -6.17746e-07 2.77728e-21)
(2.75196e-06 -5.38258e-07 -0)
(2.83057e-06 -4.52539e-07 1.88051e-24)
(2.89543e-06 -3.61484e-07 -0)
(2.94586e-06 -2.66044e-07 -0)
(2.98133e-06 -1.67208e-07 1.70576e-24)
(3.00144e-06 -6.60032e-08 1.06181e-21)
(3.00597e-06 3.65228e-08 1.09329e-21)
(2.99486e-06 1.39306e-07 -3.09662e-24)
(2.9682e-06 2.41279e-07 8.60392e-23)
(2.92623e-06 3.41379e-07 8.279e-22)
(2.86935e-06 4.38555e-07 9.14767e-22)
(2.78738e-06 5.32048e-07 -0)
(2.71529e-06 6.16279e-07 -2.45178e-24)
(2.61668e-06 6.87468e-07 -0)
(2.4961e-06 7.47772e-07 2.57106e-24)
(2.37411e-06 7.98691e-07 -2.17841e-24)
(2.24495e-06 8.4008e-07 4.53481e-24)
(2.10995e-06 8.71721e-07 -4.49169e-24)
(1.97054e-06 8.93493e-07 -4.47277e-24)
(1.82813e-06 9.05372e-07 -7.14827e-22)
(1.68421e-06 9.07432e-07 -2.53225e-23)
(1.54025e-06 8.99843e-07 7.60403e-22)
(1.39774e-06 8.82874e-07 -3.689e-25)
(1.25813e-06 8.56883e-07 5.61445e-24)
(1.12288e-06 8.22322e-07 1.00645e-23)
(1.01418e-06 7.79732e-07 -0)
(7.6533e-07 9.17666e-07 3.49213e-21)
(6.60665e-07 8.61185e-07 3.58428e-21)
(5.34283e-07 7.94223e-07 1.76184e-25)
(4.18479e-07 7.1737e-07 -1.7556e-25)
(3.14687e-07 6.3135e-07 9.69573e-22)
(2.24222e-07 5.37022e-07 1.01575e-21)
(1.48262e-07 4.35368e-07 1.57827e-24)
(8.78274e-08 3.27487e-07 -0)
(4.37621e-08 2.14581e-07 2.60212e-24)
(1.67192e-08 9.79411e-08 3.577e-26)
(7.14738e-09 -2.10717e-08 1.22223e-21)
(1.52809e-08 -1.41043e-07 2.77523e-23)
(4.1134e-08 -2.60528e-07 -1.34235e-21)
(8.4498e-08 -3.78073e-07 1.00354e-24)
(1.44943e-07 -4.92237e-07 -1.0667e-24)
(2.21824e-07 -6.01612e-07 3.24303e-24)
(3.14288e-07 -7.04848e-07 2.23786e-24)
(4.21288e-07 -8.0067e-07 3.00774e-21)
(5.41599e-07 -8.87896e-07 1.63283e-21)
(6.73834e-07 -9.65455e-07 -1.60606e-21)
(8.16465e-07 -1.0324e-06 -1.57292e-21)
(9.67847e-07 -1.08791e-06 -1.65369e-21)
(1.12624e-06 -1.13132e-06 2.447e-24)
(1.28982e-06 -1.16211e-06 4.83861e-24)
(1.45673e-06 -1.1799e-06 -2.38277e-24)
(1.62507e-06 -1.18449e-06 -0)
(1.79296e-06 -1.17581e-06 6.39855e-21)
(1.95851e-06 -1.15395e-06 6.48996e-21)
(2.1199e-06 -1.11914e-06 -7.01689e-24)
(2.27534e-06 -1.07177e-06 -2.47586e-26)
(2.42313e-06 -1.01234e-06 1.50701e-21)
(2.56167e-06 -9.41496e-07 1.55171e-21)
(2.68946e-06 -8.59989e-07 1.42256e-21)
(2.80513e-06 -7.68684e-07 1.48025e-21)
(2.90743e-06 -6.6854e-07 -0)
(2.99528e-06 -5.60608e-07 -0)
(3.06773e-06 -4.46012e-07 -0)
(3.12401e-06 -3.25942e-07 1.84522e-24)
(3.16351e-06 -2.0164e-07 -1.77614e-24)
(3.18578e-06 -7.43905e-08 -0)
(3.19058e-06 5.44932e-08 -1.12701e-21)
(3.1778e-06 1.83681e-07 -1.00997e-21)
(3.14755e-06 3.11837e-07 -1.03226e-21)
(3.10008e-06 4.37633e-07 -9.23372e-22)
(3.03583e-06 5.59757e-07 2.67618e-24)
(2.93914e-06 6.77328e-07 -6.44785e-24)
(2.86238e-06 7.82691e-07 -7.69316e-22)
(2.75027e-06 8.70944e-07 -8.0216e-22)
(2.60936e-06 9.45217e-07 2.18852e-24)
(2.47039e-06 1.00763e-06 -7.99058e-22)
(2.32402e-06 1.05808e-06 -7.44879e-22)
(2.17177e-06 1.09634e-06 6.88872e-22)
(2.01521e-06 1.12229e-06 1.41655e-21)
(1.85594e-06 1.13592e-06 7.26583e-22)
(1.69557e-06 1.13736e-06 -8.40126e-28)
(1.53574e-06 1.12684e-06 7.17197e-22)
(1.37805e-06 1.10471e-06 7.41321e-22)
(1.22411e-06 1.07144e-06 -4.35906e-24)
(1.07547e-06 1.02759e-06 -4.99601e-24)
(9.64872e-07 9.73859e-07 5.19382e-24)
(7.60691e-07 9.19956e-07 8.49119e-22)
(6.55836e-07 8.63373e-07 1.74719e-21)
(5.29184e-07 7.96307e-07 9.05657e-22)
(4.13125e-07 7.19347e-07 1.63409e-24)
(3.09092e-07 6.33219e-07 -7.38439e-25)
(2.18401e-07 5.38781e-07 3.7517e-25)
(1.42229e-07 4.37017e-07 1.60229e-24)
(8.15961e-08 3.29024e-07 -1.08775e-21)
(3.7346e-08 2.16004e-07 -1.14667e-21)
(1.01317e-08 9.92494e-08 9.10925e-25)
(4.01687e-10 -1.98797e-08 -9.41504e-25)
(8.39027e-09 -1.3997e-07 1.87231e-24)
(3.41116e-08 -2.59576e-07 9.70798e-25)
(7.73573e-08 -3.77245e-07 -0)
(1.37698e-07 -4.91535e-07 -3.15158e-24)
(2.14488e-07 -6.01042e-07 5.38849e-24)
(3.06876e-07 -7.04414e-07 -2.17956e-24)
(4.13816e-07 -8.00377e-07 2.23386e-24)
(5.34082e-07 -8.8775e-07 4.59626e-24)
(6.66289e-07 -9.65461e-07 4.13785e-26)
(8.0891e-07 -1.03256e-06 -1.11726e-26)
(9.603e-07 -1.08824e-06 -0)
(1.11872e-06 -1.13182e-06 4.8646e-24)
(1.28235e-06 -1.16278e-06 -2.40828e-24)
(1.44932e-06 -1.18075e-06 -0)
(1.61776e-06 -1.18552e-06 1.6041e-21)
(1.78576e-06 -1.17703e-06 1.66919e-21)
(1.95145e-06 -1.15535e-06 -0)
(2.113e-06 -1.12074e-06 -1.56162e-21)
(2.26862e-06 -1.07356e-06 -1.61116e-21)
(2.41662e-06 -1.01432e-06 1.50945e-21)
(2.5554e-06 -9.43662e-07 7.75846e-23)
(2.68344e-06 -8.6234e-07 -7.35277e-21)
(2.79939e-06 -7.71214e-07 -5.68229e-21)
(2.902e-06 -6.71244e-07 -0)
(2.99017e-06 -5.63479e-07 -3.93446e-24)
(3.06297e-06 -4.4904e-07 3.92198e-24)
(3.11961e-06 -3.29116e-07 -1.2133e-21)
(3.15949e-06 -2.0495e-07 -1.24076e-21)
(3.18216e-06 -7.78233e-08 -1.17532e-21)
(3.18737e-06 5.09509e-08 1.05624e-21)
(3.17502e-06 1.80043e-07 1.40638e-22)
(3.1452e-06 3.08119e-07 -1.01095e-21)
(3.09817e-06 4.3385e-07 -6.7684e-23)
(3.03436e-06 5.55924e-07 -8.85273e-22)
(2.9382e-06 6.73458e-07 6.43264e-24)
(2.86175e-06 7.78822e-07 2.43819e-24)
(2.75006e-06 8.67113e-07 -0)
(2.60963e-06 9.41448e-07 -7.28086e-22)
(2.47109e-06 1.00394e-06 -7.54875e-22)
(2.32515e-06 1.05448e-06 -1.1448e-23)
(2.17331e-06 1.09284e-06 6.98435e-24)
(2.01716e-06 1.1189e-06 4.66353e-24)
(1.85827e-06 1.13266e-06 7.73574e-22)
(1.69828e-06 1.13423e-06 -1.9957e-23)
(1.53881e-06 1.12384e-06 -7.68743e-22)
(1.38147e-06 1.10185e-06 8.84049e-24)
(1.22785e-06 1.06872e-06 -0)
(1.07951e-06 1.02503e-06 -5.1345e-24)
(9.69104e-07 9.71446e-07 -0)
(6.72359e-07 1.11048e-06 -1.7727e-21)
(5.64425e-07 1.04273e-06 -1.82215e-21)
(4.23023e-07 9.62179e-07 8.94831e-22)
(2.93146e-07 8.69525e-07 1.87412e-21)
(1.76436e-07 7.65623e-07 9.41932e-22)
(7.44141e-08 6.51497e-07 -1.04213e-21)
(-1.15486e-08 5.28329e-07 -2.14729e-21)
(-8.02533e-08 3.97449e-07 -1.13101e-21)
(-1.30697e-07 2.6032e-07 -0)
(-1.62091e-07 1.18517e-07 -0)
(-1.73881e-07 -2.62888e-08 -1.29452e-21)
(-1.65757e-07 -1.72361e-07 1.34631e-21)
(-1.37662e-07 -3.1792e-07 2.77737e-21)
(-8.97988e-08 -4.61173e-07 -2.86441e-21)
(-2.26235e-08 -6.00342e-07 -5.99437e-21)
(6.3155e-08 -7.33692e-07 -6.18742e-21)
(1.66588e-07 -8.59555e-07 -4.79245e-21)
(2.86503e-07 -9.76361e-07 -4.87246e-21)
(4.21517e-07 -1.08265e-06 -1.55077e-21)
(5.70064e-07 -1.17712e-06 1.61358e-21)
(7.30416e-07 -1.25859e-06 1.69356e-21)
(9.00706e-07 -1.32607e-06 1.65651e-21)
(1.07896e-06 -1.37875e-06 1.73034e-21)
(1.26312e-06 -1.41599e-06 3.52745e-21)
(1.45108e-06 -1.43735e-06 1.8055e-21)
(1.6407e-06 -1.44257e-06 -2.58916e-24)
(1.82984e-06 -1.43159e-06 -5.1931e-21)
(2.01637e-06 -1.40453e-06 -4.93101e-21)
(2.19823e-06 -1.36169e-06 2.53519e-24)
(2.37341e-06 -1.30353e-06 2.44667e-24)
(2.53999e-06 -1.23068e-06 -3.07647e-23)
(2.69617e-06 -1.14394e-06 4.8689e-21)
(2.84026e-06 -1.04422e-06 -1.31843e-21)
(2.97071e-06 -9.3258e-07 -1.0636e-20)
(3.08613e-06 -8.10196e-07 -6.00467e-21)
(3.18527e-06 -6.78343e-07 -2.85642e-21)
(3.26708e-06 -5.38393e-07 -2.73888e-21)
(3.33067e-06 -3.91794e-07 -2.62137e-21)
(3.37535e-06 -2.40055e-07 -2.5083e-21)
(3.40062e-06 -8.47375e-08 -1.22957e-21)
(3.40618e-06 7.25627e-08 2.17792e-21)
(3.39191e-06 2.30231e-07 3.24044e-21)
(3.35789e-06 3.86645e-07 2.98642e-21)
(3.30441e-06 5.40194e-07 2.86873e-21)
(3.23194e-06 6.89286e-07 1.78374e-21)
(3.11808e-06 8.32936e-07 8.71066e-22)
(3.03661e-06 9.61001e-07 8.61111e-22)
(2.90898e-06 1.06729e-06 2.22932e-21)
(2.74418e-06 1.15616e-06 2.91547e-21)
(2.58552e-06 1.23048e-06 1.45804e-21)
(2.41923e-06 1.29024e-06 -3.35777e-24)
(2.24702e-06 1.33519e-06 -7.58259e-22)
(2.07064e-06 1.36525e-06 -1.47306e-21)
(1.89188e-06 1.38043e-06 -2.054e-21)
(1.71253e-06 1.38091e-06 -1.38701e-21)
(1.53437e-06 1.367e-06 -7.658e-22)
(1.35918e-06 1.33915e-06 -7.60915e-22)
(1.1887e-06 1.29793e-06 -2.98513e-25)
(1.02463e-06 1.24406e-06 5.34718e-24)