/*--------------------------------*- C++ -*----------------------------------*\
| =========                 |                                                 |
| \\      /  F ield         | OpenFOAM: The Open Source CFD Toolbox           |
|  \\    /   O peration     | Version:  5.x                                   |
|   \\  /    A nd           | Web:      www.OpenFOAM.org                      |
|    \\/     M anipulation  |                                                 |
\*---------------------------------------------------------------------------*/
FoamFile
{
    version     2.0;
    format      ascii;
    class       volSymmTensorField;
    location    "300/subsurface";
    object      UPrime2Mean;
}
// * * * * * * * * * * * * * * * * * * * * * * * * * * * * * * * * * * * * * //

dimensions      [0 2 -2 0 0 0 0];

internalField   nonuniform List<symmTensor> 
7200
(
(1.51205e-12 3.12594e-14 0 6.57218e-16 0 0)
(1.43675e-12 3.10678e-14 0 6.8373e-16 0 0)
(1.36238e-12 3.04871e-14 0 6.95144e-16 0 0)
(1.29009e-12 2.95478e-14 6.19242e-34 6.90631e-16 1.4438e-35 3.29656e-55)
(1.22074e-12 2.82852e-14 -9.73254e-31 6.7018e-16 -2.34726e-32 8.53237e-49)
(1.15506e-12 2.67388e-14 0 6.34592e-16 0 0)
(1.0937e-12 2.49501e-14 -2.74319e-30 5.85447e-16 -6.53855e-32 7.60001e-48)
(1.03719e-12 2.29605e-14 1.77315e-30 5.25029e-16 4.11007e-32 3.35638e-48)
(9.85933e-13 2.08096e-14 0 4.56203e-16 0 0)
(9.40263e-13 1.85336e-14 0 3.82276e-16 0 0)
(9.00409e-13 1.61638e-14 0 3.06821e-16 0 0)
(8.66527e-13 1.3726e-14 0 2.33504e-16 0 0)
(8.38714e-13 1.12401e-14 0 1.65901e-16 0 0)
(8.17021e-13 8.72032e-15 0 1.0733e-16 0 0)
(8.0147e-13 6.17522e-15 -7.6748e-31 6.07011e-17 -6.35317e-33 8.23926e-49)
(7.92062e-13 3.60883e-15 7.62139e-31 2.83888e-17 3.79186e-33 8.22708e-49)
(7.8879e-13 1.02159e-15 0 1.21384e-17 0 0)
(7.91644e-13 -1.58848e-15 3.04721e-30 1.30008e-17 -5.87158e-33 1.31593e-47)
(8.00615e-13 -4.22436e-15 -3.05442e-30 3.13012e-17 1.64033e-32 1.30705e-47)
(8.15697e-13 -6.88867e-15 -7.71675e-31 6.66386e-17 6.71805e-33 8.17984e-49)
(8.3688e-13 -9.58231e-15 0 1.17913e-16 0 0)
(8.64149e-13 -1.23032e-14 7.93867e-31 1.83382e-16 -1.17422e-32 8.14912e-49)
(8.97471e-13 -1.50454e-14 8.08807e-31 2.60729e-16 -1.41028e-32 8.13015e-49)
(9.36787e-13 -1.77977e-14 0 3.47162e-16 0 0)
(9.82e-13 -2.05437e-14 8.453e-31 4.39524e-16 -1.83976e-32 8.08279e-49)
(1.03296e-12 -2.32607e-14 6.93171e-30 5.34391e-16 -1.62317e-31 5.15591e-47)
(1.08945e-12 -2.592e-14 7.64408e-33 6.28213e-16 -1.87174e-34 6.3688e-53)
(1.15119e-12 -2.84872e-14 -7.29345e-30 7.17431e-16 1.87401e-31 5.09928e-47)
(1.21779e-12 -3.09221e-14 0 7.98605e-16 0 0)
(1.28879e-12 -3.318e-14 0 8.68543e-16 0 0)
(1.36361e-12 -3.52123e-14 0 9.2441e-16 0 0)
(1.44157e-12 -3.69682e-14 -8.09415e-30 9.63848e-16 2.14735e-31 4.97486e-47)
(1.52188e-12 -3.83956e-14 8.29767e-30 9.8507e-16 -2.16373e-31 4.94281e-47)
(1.60367e-12 -3.94431e-14 0 9.86949e-16 0 0)
(1.68595e-12 -4.00618e-14 0 9.6908e-16 0 0)
(1.76767e-12 -4.02069e-14 -1.10529e-30 9.31827e-16 2.59321e-32 7.51814e-49)
(1.84768e-12 -3.98397e-14 0 8.76349e-16 0 0)
(1.92484e-12 -3.89297e-14 0 8.04586e-16 0 0)
(1.99793e-12 -3.74557e-14 0 7.19224e-16 0 0)
(2.06577e-12 -3.54079e-14 0 6.23623e-16 0 0)
(2.1272e-12 -3.27886e-14 0 5.21721e-16 0 0)
(2.1811e-12 -2.96134e-14 0 4.17904e-16 0 0)
(2.22648e-12 -2.59115e-14 1.90463e-29 3.16842e-16 -2.28873e-31 1.76384e-46)
(2.26241e-12 -2.17255e-14 -3.70232e-29 2.23315e-16 3.67725e-31 6.55616e-46)
(2.28816e-12 -1.71109e-14 1.91257e-29 1.42015e-16 -1.48375e-31 1.72937e-46)
(2.30312e-12 -1.2135e-14 0 7.73516e-17 0 0)
(2.30756e-12 -6.67541e-15 0 3.18981e-17 0 0)
(2.30143e-12 -7.77013e-16 0 1.18865e-17 0 0)
(2.28385e-12 5.22847e-15 0 2.26722e-17 0 0)
(2.25473e-12 1.11001e-14 0 6.45433e-17 0 0)
(2.21432e-12 1.67083e-14 0 1.35302e-16 0 0)
(2.16312e-12 2.19275e-14 9.49068e-30 2.30993e-16 9.73508e-32 4.51864e-47)
(2.10184e-12 2.66427e-14 -3.19508e-32 3.46082e-16 -4.0291e-34 4.9211e-52)
(2.03144e-12 3.07531e-14 -9.3702e-30 4.73735e-16 -1.44181e-31 4.69653e-47)
(1.95307e-12 3.41769e-14 -4.61754e-30 6.06222e-16 -8.22681e-32 1.18794e-47)
(1.86802e-12 3.68543e-14 1.1323e-32 7.35392e-16 2.22975e-34 7.04466e-53)
(1.77774e-12 3.87501e-14 6.73595e-30 8.53217e-16 1.49914e-31 2.78349e-47)
(1.68375e-12 3.98552e-14 -3.77806e-33 9.52348e-16 -8.94111e-35 8.95384e-54)
(1.58762e-12 4.01859e-14 -2.16351e-30 1.02664e-15 -5.60749e-32 3.22473e-48)
(1.49121e-12 3.97873e-14 4.23114e-30 1.0716e-15 1.15776e-31 1.3155e-47)
(1.39378e-12 3.91484e-14 1.02318e-30 1.11051e-15 2.95198e-32 8.24568e-49)
(1.30049e-12 3.8308e-14 0 1.14043e-15 0 0)
(1.20983e-12 3.70736e-14 0 1.14926e-15 0 0)
(1.12296e-12 3.54898e-14 0 1.13602e-15 0 0)
(1.04068e-12 3.36052e-14 0 1.10079e-15 0 0)
(9.63664e-13 3.14725e-14 0 1.04464e-15 0 0)
(8.92438e-13 2.91452e-14 0 9.69626e-16 0 0)
(8.27387e-13 2.66758e-14 -1.54043e-30 8.78693e-16 -5.16559e-32 3.19891e-48)
(7.68766e-13 2.41126e-14 1.47742e-30 7.75516e-16 4.83045e-32 3.17658e-48)
(7.16715e-13 2.14983e-14 0 6.64335e-16 0 0)
(6.71273e-13 1.88685e-14 0 5.49746e-16 0 0)
(6.32404e-13 1.62505e-14 2.67776e-30 4.36477e-16 7.21998e-32 1.27731e-47)
(6.00011e-13 1.3663e-14 2.59581e-30 3.29168e-16 6.21722e-32 1.26852e-47)
(5.73963e-13 1.11166e-14 -2.54873e-30 2.32172e-16 -5.20353e-32 1.27987e-47)
(5.54115e-13 8.61386e-15 2.49322e-30 1.49343e-16 4.09605e-32 1.27112e-47)
(5.40321e-13 6.15057e-15 2.474e-30 8.38941e-17 2.98479e-32 1.28382e-47)
(5.32456e-13 3.71728e-15 1.12884e-32 3.82747e-17 8.29258e-35 2.45632e-52)
(5.30416e-13 1.30076e-15 -2.44412e-30 1.40862e-17 -6.51132e-33 1.27734e-47)
(5.34134e-13 -1.11418e-15 0 1.2044e-17 0 0)
(5.43572e-13 -3.54289e-15 0 3.19757e-17 0 0)
(5.58725e-13 -5.99915e-15 5.06187e-30 7.28539e-17 -5.68893e-32 5.17686e-47)
(5.7961e-13 -8.49353e-15 -1.03071e-29 1.32862e-16 1.58264e-31 2.06491e-46)
(6.06256e-13 -1.1032e-14 5.92993e-30 2.09483e-16 -1.13056e-31 6.51843e-47)
(6.38692e-13 -1.36148e-14 0 2.99613e-16 0 0)
(6.76931e-13 -1.62355e-14 0 3.9968e-16 0 0)
(7.20952e-13 -1.88803e-14 0 5.05791e-16 0 0)
(7.70688e-13 -2.15281e-14 0 6.13864e-16 0 0)
(8.26005e-13 -2.41505e-14 0 7.19776e-16 0 0)
(8.86687e-13 -2.67121e-14 0 8.19505e-16 0 0)
(9.52428e-13 -2.91713e-14 0 9.09267e-16 0 0)
(1.02282e-12 -3.14812e-14 0 9.85648e-16 0 0)
(1.09734e-12 -3.35912e-14 0 1.04572e-15 0 0)
(1.17535e-12 -3.54483e-14 -7.38809e-30 1.08713e-15 2.30158e-31 5.06715e-47)
(1.25611e-12 -3.69989e-14 7.62117e-30 1.10825e-15 -2.31574e-31 5.03462e-47)
(1.33877e-12 -3.81906e-14 0 1.10815e-15 0 0)
(1.42238e-12 -3.8974e-14 0 1.08671e-15 0 0)
(1.50591e-12 -3.93048e-14 0 1.04464e-15 0 0)
(1.58825e-12 -3.91462e-14 1.05999e-30 9.83453e-16 -2.68435e-32 7.65113e-49)
(1.66827e-12 -3.84695e-14 1.72906e-29 9.05404e-16 -4.09375e-31 1.93615e-46)
(1.7448e-12 -3.72564e-14 -1.76373e-29 8.13455e-16 3.86417e-31 1.92395e-46)
(1.8167e-12 -3.55003e-14 0 7.11163e-16 0 0)
(1.88284e-12 -3.32068e-14 0 6.02551e-16 0 0)
(1.94217e-12 -3.03947e-14 0 4.91961e-16 0 0)
(1.99372e-12 -2.70954e-14 1.15404e-30 3.83874e-16 -1.60678e-32 7.19138e-49)
(2.03666e-12 -2.3353e-14 0 2.82737e-16 0 0)
(2.0703e-12 -1.92231e-14 0 1.92775e-16 0 0)
(2.09417e-12 -1.45883e-14 -2.09961e-29 1.15056e-16 1.49771e-31 2.26581e-46)
(2.10856e-12 -9.51498e-15 1.8891e-29 5.53684e-17 -8.72664e-32 1.82146e-46)
(2.1129e-12 -4.26933e-15 0 2.00875e-17 0 0)
(2.10689e-12 9.59317e-16 -4.78375e-30 1.10312e-17 -2.2472e-33 1.16991e-47)
(2.0906e-12 6.05622e-15 4.78788e-30 2.7398e-17 1.42348e-32 1.18201e-47)
(2.06432e-12 1.0909e-14 -4.82535e-30 6.69065e-17 -2.61585e-32 1.21587e-47)
(2.02851e-12 1.54116e-14 -4.80342e-30 1.25909e-16 -3.74505e-32 1.22749e-47)
(1.98387e-12 1.94685e-14 4.78867e-30 1.99599e-16 4.82482e-32 1.24853e-47)
(1.93126e-12 2.29982e-14 -4.76411e-30 2.82316e-16 -5.8285e-32 1.2707e-47)
(1.87171e-12 2.59364e-14 4.72694e-30 3.67908e-16 6.73475e-32 1.29232e-47)
(1.8064e-12 2.82384e-14 -7.04178e-30 4.50164e-16 -1.13279e-31 2.97477e-47)
(1.73658e-12 2.98808e-14 -6.96306e-30 5.23238e-16 -1.23424e-31 3.03001e-47)
(1.66358e-12 3.08609e-14 -4.58499e-30 5.82067e-16 -8.77262e-32 1.37357e-47)
(1.58903e-12 3.1199e-14 0 6.22703e-16 0 0)
(1.51483e-12 9.36513e-14 -2.86697e-31 5.88797e-15 -1.83313e-32 5.91834e-50)
(1.43874e-12 9.31215e-14 2.78152e-31 6.13396e-15 1.8646e-32 5.87603e-50)
(1.36182e-12 9.12892e-14 -1.07659e-30 6.23516e-15 -7.48637e-32 9.31994e-49)
(1.28707e-12 8.83154e-14 1.04212e-30 6.1843e-15 7.43009e-32 9.25923e-49)
(1.21539e-12 8.43181e-14 1.00774e-30 5.98211e-15 7.27736e-32 9.19046e-49)
(1.14756e-12 7.94289e-14 -2.67592e-33 5.63741e-15 -1.88877e-34 6.4635e-54)
(1.08423e-12 7.37852e-14 2.83291e-30 5.16672e-15 2.01468e-31 8.18024e-48)
(1.02596e-12 6.7524e-14 -1.83261e-30 4.59338e-15 -1.26311e-31 3.62607e-48)
(9.73171e-13 6.07755e-14 1.77335e-30 3.94637e-15 1.16257e-31 3.58932e-48)
(9.2618e-13 5.36578e-14 -3.48746e-33 3.25864e-15 -2.05116e-34 1.37772e-53)
(8.85216e-13 4.62732e-14 3.37305e-30 2.56542e-15 1.8604e-31 1.43365e-47)
(8.50428e-13 3.87058e-14 1.65544e-30 1.90229e-15 7.97329e-32 3.6003e-48)
(8.21901e-13 3.10199e-14 -1.61481e-30 1.30338e-15 -6.47529e-32 3.55308e-48)
(7.99674e-13 2.32608e-14 0 7.9966e-16 0 0)
(7.83756e-13 1.54565e-14 5.51912e-30 4.17425e-16 1.17267e-31 4.36233e-47)
(7.74139e-13 7.61998e-15 -7.73112e-31 1.77139e-16 -8.40675e-33 8.68392e-49)
(7.70807e-13 -2.46719e-16 -3.11489e-30 9.25646e-17 -5.31072e-34 1.41465e-47)
(7.73746e-13 -8.1486e-15 4.69009e-30 1.70257e-16 -4.9678e-32 3.19379e-47)
(7.82947e-13 -1.60932e-14 -6.28167e-30 4.09415e-16 1.32924e-31 5.6594e-47)
(7.98404e-13 -2.40859e-14 5.54518e-30 8.02062e-16 -1.73522e-31 4.32092e-47)
(8.20115e-13 -3.21258e-14 0 1.33352e-15 0 0)
(8.48072e-13 -4.02019e-14 -5.72385e-30 1.98315e-15 2.82827e-31 4.3208e-47)
(8.82254e-13 -4.82895e-14 5.82309e-30 2.72527e-15 -3.32446e-31 4.29136e-47)
(9.22615e-13 -5.63477e-14 1.70436e-30 3.53032e-15 -1.08568e-31 3.50741e-48)
(9.69068e-13 -6.43182e-14 -2.61817e-30 4.36601e-15 1.81168e-31 7.86268e-48)
(1.02148e-12 -7.21236e-14 0 5.19864e-15 0 0)
(1.07964e-12 -7.96678e-14 0 5.99438e-15 0 0)
(1.14327e-12 -8.68376e-14 0 6.72059e-15 0 0)
(1.212e-12 -9.3504e-14 0 7.34708e-15 0 0)
(1.28536e-12 -9.9525e-14 0 7.84727e-15 0 0)
(1.36276e-12 -1.0475e-13 -8.20734e-30 8.19926e-15 6.54066e-31 5.42091e-47)
(1.44352e-12 -1.09023e-13 8.42847e-30 8.38676e-15 -6.59316e-31 5.38592e-47)
(1.52682e-12 -1.12188e-13 -8.63569e-30 8.39987e-15 6.56658e-31 5.33672e-47)
(1.61177e-12 -1.14095e-13 1.76933e-29 8.2356e-15 -1.2951e-30 2.11847e-46)
(1.69734e-12 -1.14607e-13 2.24866e-30 7.89827e-15 -1.56932e-31 3.24733e-48)
(1.78243e-12 -1.136e-13 1.13473e-30 7.3996e-15 -7.47342e-32 7.87552e-49)
(1.86587e-12 -1.10976e-13 -9.40996e-30 6.75848e-15 5.77764e-31 5.15446e-47)
(1.94643e-12 -1.06666e-13 1.193e-29 6.00061e-15 -6.74814e-31 7.93602e-47)
(2.02286e-12 -1.00631e-13 -9.70036e-30 5.15764e-15 4.98066e-31 5.04259e-47)
(2.0939e-12 -9.28713e-14 -9.78346e-30 4.26623e-15 4.48052e-31 4.95358e-47)
(2.15833e-12 -8.34281e-14 9.90659e-30 3.36671e-15 -3.95633e-31 4.9225e-47)
(2.21497e-12 -7.23835e-14 0 2.50155e-15 0 0)
(2.26274e-12 -5.98624e-14 0 1.71365e-15 0 0)
(2.30068e-12 -4.60314e-14 1.87358e-29 1.04453e-15 -3.90269e-31 1.65088e-46)
(2.32799e-12 -3.10954e-14 -2.00488e-29 5.32423e-16 2.81147e-31 1.86714e-46)
(2.34409e-12 -1.52955e-14 0 2.10536e-16 0 0)
(2.34916e-12 1.16255e-15 0 1.04085e-16 0 0)
(2.34303e-12 1.77828e-14 2.0048e-29 2.30665e-16 1.48351e-31 1.85665e-46)
(2.32424e-12 3.41243e-14 1.00577e-29 5.89538e-16 1.47383e-31 4.71225e-47)
(2.29341e-12 4.98556e-14 0 1.16628e-15 0 0)
(2.2508e-12 6.46479e-14 -1.00311e-29 1.93454e-15 -2.91127e-31 4.84592e-47)
(2.19693e-12 7.81917e-14 9.98019e-30 2.85721e-15 3.59893e-31 4.91816e-47)
(2.13261e-12 9.02099e-14 9.90508e-30 3.88808e-15 4.25357e-31 4.9948e-47)
(2.05885e-12 1.00469e-13 9.8068e-30 4.97415e-15 4.86622e-31 5.07647e-47)
(1.9769e-12 1.08787e-13 9.68672e-30 6.05847e-15 5.42821e-31 5.16381e-47)
(1.88814e-12 1.15045e-13 1.43193e-29 7.08348e-15 8.8969e-31 1.18285e-46)
(1.79412e-12 1.19188e-13 -1.17459e-29 7.9945e-15 -7.96758e-31 8.38619e-47)
(1.69645e-12 1.21228e-13 6.90594e-30 8.74322e-15 5.04613e-31 3.07086e-47)
(1.59677e-12 1.21244e-13 9.02759e-30 9.29089e-15 7.01912e-31 5.58344e-47)
(1.49933e-12 1.1948e-13 -1.32657e-29 9.61086e-15 -1.08409e-30 1.28603e-46)
(1.39528e-12 1.16981e-13 -1.06344e-30 9.9052e-15 -9.15828e-32 8.8971e-49)
(1.30143e-12 1.14453e-13 0 1.01727e-14 0 0)
(1.20817e-12 1.10559e-13 0 1.02352e-14 0 0)
(1.11883e-12 1.05544e-13 0 1.00854e-14 0 0)
(1.03428e-12 9.9572e-14 0 9.72568e-15 0 0)
(9.55199e-13 9.28175e-14 0 9.16895e-15 0 0)
(8.82146e-13 8.54589e-14 1.65388e-30 8.43759e-15 1.66372e-31 3.45176e-48)
(8.15512e-13 7.76683e-14 -1.58215e-30 7.56262e-15 -1.56819e-31 3.4276e-48)
(7.55553e-13 6.96041e-14 0 6.58217e-15 0 0)
(7.02399e-13 6.14053e-14 0 5.53951e-15 0 0)
(6.56076e-13 5.3186e-14 -1.4161e-30 4.48083e-15 -1.20305e-31 3.43968e-48)
(6.16527e-13 4.50331e-14 1.36591e-30 3.45294e-15 1.04829e-31 3.41594e-48)
(5.83636e-13 3.70052e-14 -2.66723e-30 2.50091e-15 -1.78118e-31 1.37818e-47)
(5.57248e-13 2.91333e-14 -1.16397e-32 1.66599e-15 -6.233e-34 2.48826e-52)
(5.37198e-13 2.14229e-14 2.54687e-30 9.83671e-16 1.0761e-31 1.37071e-47)
(5.23323e-13 1.38583e-14 0 4.82165e-16 0 0)
(5.15484e-13 6.40708e-15 0 1.81341e-16 0 0)
(5.13569e-13 -9.74201e-16 2.5078e-30 9.20624e-17 -4.36142e-33 1.39065e-47)
(5.17506e-13 -8.33394e-15 -5.03008e-30 2.15981e-16 8.42308e-32 5.54925e-47)
(5.27261e-13 -1.57196e-14 2.53706e-30 5.45748e-16 -7.92101e-32 1.384e-47)
(5.42835e-13 -2.31721e-14 0 1.0656e-15 0 0)
(5.64255e-13 -3.07204e-14 0 1.75225e-15 0 0)
(5.91566e-13 -3.83773e-14 -6.77078e-31 2.57606e-15 4.60721e-32 8.71902e-49)
(6.24813e-13 -4.6136e-14 0 3.50234e-15 0 0)
(6.64028e-13 -5.39674e-14 0 4.49284e-15 0 0)
(7.09207e-13 -6.18192e-14 0 5.50728e-15 0 0)
(7.60299e-13 -6.96152e-14 0 6.5049e-15 0 0)
(8.17185e-13 -7.72564e-14 6.42402e-30 7.44594e-15 -6.32313e-31 5.58766e-47)
(8.7966e-13 -8.4623e-14 -6.65305e-30 8.29311e-15 6.65223e-31 5.55124e-47)
(9.47422e-13 -9.15771e-14 0 9.01296e-15 0 0)
(1.02006e-12 -9.7967e-14 0 9.57702e-15 0 0)
(1.09705e-12 -1.03631e-13 0 9.96284e-15 0 0)
(1.17774e-12 -1.08404e-13 0 1.01549e-14 0 0)
(1.26137e-12 -1.12122e-13 -7.94604e-30 1.01451e-14 7.2851e-31 5.44899e-47)
(1.34705e-12 -1.14629e-13 1.63855e-29 9.93319e-15 -1.4364e-30 2.16535e-46)
(1.4338e-12 -1.15783e-13 -8.43252e-30 9.52701e-15 7.00703e-31 5.3781e-47)
(1.52053e-12 -1.15461e-13 0 8.94199e-15 0 0)
(1.60611e-12 -1.13568e-13 7.7509e-30 8.20107e-15 -5.62952e-31 4.0446e-47)
(1.68932e-12 -1.10039e-13 -1.44201e-32 7.33349e-15 9.36378e-34 1.27422e-52)
(1.76895e-12 -1.04843e-13 -9.23501e-30 6.37406e-15 5.61404e-31 5.20081e-47)
(1.84379e-12 -9.79899e-14 0 5.36172e-15 0 0)
(1.91264e-12 -8.95294e-14 0 4.33808e-15 0 0)
(1.97439e-12 -7.95528e-14 0 3.34565e-15 0 0)
(2.02803e-12 -6.81921e-14 -2.05356e-29 2.42614e-15 7.07198e-31 2.23806e-46)
(2.07265e-12 -5.56173e-14 3.89043e-29 1.61859e-15 -1.06901e-30 7.85665e-46)
(2.10779e-12 -4.20398e-14 -1.95296e-29 9.57849e-16 3.9882e-31 1.9463e-46)
(2.13164e-12 -2.7571e-14 1.7154e-29 4.68407e-16 -2.27159e-31 1.48535e-46)
(2.14588e-12 -1.272e-14 -9.9562e-30 1.78939e-16 6.03998e-32 4.96871e-47)
(2.14944e-12 2.11973e-15 1.00041e-29 9.79027e-17 1.01311e-32 5.01142e-47)
(2.1421e-12 1.66631e-14 1.5092e-29 2.18787e-16 1.20305e-31 1.14489e-46)
(2.12403e-12 3.06113e-14 5.0619e-30 5.24883e-16 7.4752e-32 1.29922e-47)
(2.09554e-12 4.36796e-14 5.07925e-30 9.90008e-16 1.08511e-31 1.32647e-47)
(2.05715e-12 5.56068e-14 2.52375e-29 1.5798e-15 6.99669e-31 3.34017e-46)
(2.00963e-12 6.61643e-14 5.019e-30 2.25358e-15 1.69576e-31 1.35376e-47)
(1.95391e-12 7.51658e-14 1.49884e-29 2.96665e-15 5.92132e-31 1.24286e-46)
(1.89109e-12 8.24735e-14 1.48643e-29 3.67297e-15 6.66283e-31 1.26451e-46)
(1.82244e-12 8.80031e-14 -9.81949e-30 4.32802e-15 -4.87817e-31 5.73332e-47)
(1.74928e-12 9.17263e-14 1.45645e-29 4.89162e-15 7.86565e-31 1.31591e-46)
(1.67304e-12 9.36704e-14 1.55788e-29 5.33049e-15 8.99461e-31 1.57664e-46)
(1.5973e-12 9.39798e-14 -1.18409e-30 5.62032e-15 -7.19401e-32 9.5545e-49)
(1.52018e-12 1.56653e-13 0 1.64163e-14 0 0)
(1.44272e-12 1.55761e-13 2.30678e-30 1.71133e-14 2.57938e-31 4.03133e-48)
(1.36095e-12 1.52474e-13 -5.57991e-31 1.74046e-14 -6.48513e-32 2.5057e-49)
(1.28154e-12 1.47265e-13 1.61369e-30 1.72696e-14 1.92709e-31 2.23105e-48)
(1.20547e-12 1.40345e-13 1.04052e-30 1.67101e-14 1.26129e-31 9.88396e-49)
(1.13357e-12 1.31949e-13 -2.01172e-30 1.57504e-14 -2.44296e-31 3.93851e-48)
(1.06654e-12 1.2232e-13 0 1.44367e-14 0 0)
(1.00497e-12 1.11699e-13 -1.88043e-30 1.28345e-14 -2.19011e-31 3.90194e-48)
(9.49286e-13 1.00314e-13 -2.86271e-33 1.10251e-14 -3.09841e-34 8.92848e-54)
(8.99811e-13 8.83689e-14 1.76546e-30 9.10115e-15 1.82616e-31 3.86198e-48)
(8.5676e-13 7.60395e-14 -3.44087e-30 7.16176e-15 -3.22563e-31 1.54424e-47)
(8.20262e-13 6.3466e-14 -4.42934e-33 5.30694e-15 -3.50331e-34 2.4896e-53)
(7.90377e-13 5.0753e-14 -2.88404e-33 3.63251e-15 -1.93499e-34 1.09305e-53)
(7.67119e-13 3.797e-14 -1.61794e-30 2.22533e-15 -8.5647e-32 3.83577e-48)
(7.50471e-13 2.51546e-14 -1.59939e-30 1.15903e-15 -5.78643e-32 3.83597e-48)
(7.40403e-13 1.23174e-14 3.17884e-30 4.90743e-16 5.8528e-32 1.53693e-47)
(7.36885e-13 -5.50825e-16 -4.74171e-30 2.587e-16 -3.73816e-34 3.4381e-47)
(7.39892e-13 -1.34719e-14 -1.58466e-30 4.8088e-16 2.90862e-32 3.82343e-48)
(7.49413e-13 -2.64719e-14 0 1.15463e-15 0 0)
(7.65449e-13 -3.9573e-14 -3.22391e-30 2.25721e-15 1.73192e-31 1.52699e-47)
(7.8801e-13 -5.27856e-14 -1.63667e-30 3.74721e-15 1.14294e-31 3.81678e-48)
(8.17106e-13 -6.61017e-14 3.72882e-33 5.5666e-15 -3.0457e-34 1.83589e-53)
(8.52742e-13 -7.94886e-14 -3.39958e-30 7.64344e-15 3.30998e-31 1.51601e-47)
(8.94895e-13 -9.28846e-14 -3.48767e-30 9.89494e-15 3.78034e-31 1.51667e-47)
(9.4351e-13 -1.06196e-13 1.78861e-30 1.22309e-14 -2.10116e-31 3.7744e-48)
(9.98477e-13 -1.19294e-13 -5.52516e-30 1.45572e-14 6.88388e-31 3.39439e-47)
(1.05962e-12 -1.32019e-13 7.57516e-30 1.67794e-14 -9.83209e-31 5.99699e-47)
(1.12667e-12 -1.44176e-13 1.95519e-30 1.88066e-14 -2.60345e-31 3.74697e-48)
(1.19928e-12 -1.55544e-13 8.04816e-30 2.05545e-14 -1.08494e-30 5.95084e-47)
(1.27698e-12 -1.65878e-13 -6.21222e-30 2.1949e-14 8.37752e-31 3.32189e-47)
(1.35918e-12 -1.74914e-13 1.06695e-29 2.2929e-14 -1.42388e-30 9.18562e-47)
(1.44518e-12 -1.82381e-13 -1.75542e-29 2.3449e-14 2.29485e-30 2.33362e-46)
(1.53413e-12 -1.88002e-13 9.02095e-30 2.34813e-14 -1.14401e-30 5.79363e-47)
(1.62509e-12 -1.91514e-13 1.15587e-29 2.30176e-14 -1.40849e-30 8.96496e-47)
(1.71697e-12 -1.92668e-13 -1.18439e-29 2.20698e-14 1.37316e-30 8.8938e-47)
(1.8086e-12 -1.91246e-13 2.42354e-30 2.06707e-14 -2.6462e-31 3.52997e-48)
(1.89871e-12 -1.87067e-13 0 1.88731e-14 0 0)
(1.98598e-12 -1.8e-13 -2.509e-30 1.67489e-14 2.3466e-31 3.43819e-48)
(2.06903e-12 -1.69972e-13 0 1.43871e-14 0 0)
(2.14648e-12 -1.56973e-13 1.03078e-29 1.18904e-14 -7.78128e-31 5.36082e-47)
(2.21698e-12 -1.41067e-13 -1.30583e-29 9.37217e-15 8.58222e-31 8.32139e-47)
(2.27922e-12 -1.22388e-13 0 6.95188e-15 0 0)
(2.33199e-12 -1.01149e-13 1.0535e-29 4.75023e-15 -4.73705e-31 5.1472e-47)
(2.3742e-12 -7.76369e-14 -1.06006e-29 2.88404e-15 3.60792e-31 5.11524e-47)
(2.40492e-12 -5.22069e-14 2.64347e-30 1.46087e-15 -6.02643e-32 3.14081e-48)
(2.42362e-12 -2.52843e-14 0 5.74e-16 0 0)
(2.4299e-12 2.73348e-15 5.28889e-30 2.93518e-16 2.88757e-33 1.24469e-47)
(2.42394e-12 3.09332e-14 -1.06454e-29 6.63532e-16 -1.32511e-31 5.05629e-47)
(2.40311e-12 5.85843e-14 -1.06687e-29 1.67701e-15 -2.59536e-31 5.12462e-47)
(2.36925e-12 8.51526e-14 -1.06511e-29 3.29236e-15 -3.85038e-31 5.18429e-47)
(2.32256e-12 1.10074e-13 -1.05868e-29 5.4352e-15 -5.06816e-31 5.23012e-47)
(2.26369e-12 1.32821e-13 1.05643e-29 8.00182e-15 6.2779e-31 5.34513e-47)
(2.19354e-12 1.52924e-13 -1.04807e-29 1.08638e-14 -7.41549e-31 5.43333e-47)
(2.11329e-12 1.69991e-13 -2.07092e-29 1.3874e-14 -1.69342e-30 2.20441e-46)
(2.02434e-12 1.83721e-13 -1.02273e-29 1.6875e-14 -9.44943e-31 5.61797e-47)
(1.92827e-12 1.93919e-13 -5.04433e-30 1.97075e-14 -5.17148e-31 1.43614e-47)
(1.82681e-12 2.00505e-13 4.94161e-30 2.22201e-14 5.53707e-31 1.45717e-47)
(1.72177e-12 2.03516e-13 -2.69452e-32 2.42792e-14 -3.21437e-33 4.25558e-52)
(1.61497e-12 2.031e-13 -9.47307e-30 2.57776e-14 -1.21975e-30 6.07634e-47)
(1.51532e-12 1.99988e-13 2.63518e-32 2.6642e-14 3.51052e-33 4.62569e-52)
(1.39823e-12 1.94877e-13 -2.75641e-31 2.7432e-14 -3.94643e-32 5.96612e-50)
(1.30343e-12 1.90687e-13 -1.85043e-30 2.81948e-14 -2.78538e-31 2.89085e-48)
(1.20522e-12 1.83885e-13 0 2.83841e-14 0 0)
(1.11123e-12 1.75191e-13 -9.70561e-31 2.79791e-14 -1.58e-31 9.36994e-49)
(1.02238e-12 1.64899e-13 -9.24305e-31 2.6987e-14 -1.54253e-31 9.26532e-49)
(9.39428e-13 1.5332e-13 8.86591e-31 2.54429e-14 1.50021e-31 9.29848e-49)
(8.62949e-13 1.4077e-13 -8.45375e-31 2.34096e-14 -1.43307e-31 9.23324e-49)
(7.93356e-13 1.27552e-13 -1.62134e-30 2.0974e-14 -2.71504e-31 3.70403e-48)
(7.30903e-13 1.13942e-13 1.54805e-30 1.82431e-14 2.52007e-31 3.67823e-48)
(6.75701e-13 1.00182e-13 0 1.53384e-14 0 0)
(6.27745e-13 8.64673e-14 1.43525e-30 1.239e-14 2.07512e-31 3.70191e-48)
(5.86938e-13 7.29441e-14 -2.76275e-30 9.52937e-15 -3.61437e-31 1.47201e-47)
(5.53118e-13 5.9706e-14 2.69061e-30 6.88305e-15 3.06577e-31 1.4845e-47)
(5.26088e-13 4.67967e-14 -2.61129e-30 4.56672e-15 -2.45968e-31 1.47433e-47)
(5.0564e-13 3.42141e-14 -1.29016e-30 2.67961e-15 -9.27517e-32 3.74667e-48)
(4.91575e-13 2.19177e-14 3.79138e-30 1.30038e-15 1.80529e-31 3.3353e-47)
(4.83727e-13 9.83738e-15 0 4.84096e-16 0 0)
(4.81967e-13 -2.1162e-15 1.25665e-30 2.60393e-16 -5.22848e-33 3.7369e-48)
(4.86217e-13 -1.4041e-14 1.2646e-30 6.33035e-16 -3.8055e-32 3.7475e-48)
(4.96446e-13 -2.60325e-14 0 1.58056e-15 0 0)
(5.1267e-13 -3.81739e-14 0 3.05799e-15 0 0)
(5.34939e-13 -5.05263e-14 -2.67559e-30 4.99942e-15 2.65712e-31 1.51411e-47)
(5.63329e-13 -6.31218e-14 2.74014e-30 7.32127e-15 -3.22657e-31 1.50405e-47)
(5.9792e-13 -7.59564e-14 -5.68245e-30 9.92608e-15 7.57559e-31 6.06949e-47)
(6.38782e-13 -8.89865e-14 1.17485e-29 1.27066e-14 -1.71498e-30 2.42017e-46)
(6.85951e-13 -1.02126e-13 -6.08857e-30 1.555e-14 9.4821e-31 6.03153e-47)
(7.39412e-13 -1.15246e-13 0 1.83423e-14 0 0)
(7.99079e-13 -1.28178e-13 0 2.09726e-14 0 0)
(8.64772e-13 -1.40713e-13 -1.72115e-30 2.33367e-14 2.91243e-31 3.78036e-48)
(9.36208e-13 -1.52612e-13 0 2.53413e-14 0 0)
(1.01298e-12 -1.63609e-13 0 2.69072e-14 0 0)
(1.09456e-12 -1.7342e-13 -9.66895e-30 2.79719e-14 1.58468e-30 9.3404e-47)
(1.18027e-12 -1.81753e-13 -5.09231e-33 2.84922e-14 8.24014e-34 3.20642e-53)
(1.2693e-12 -1.88318e-13 1.66003e-29 2.84458e-14 -2.54012e-30 2.36267e-46)
(1.36074e-12 -1.92837e-13 -8.57638e-30 2.78327e-14 1.25188e-30 5.87014e-47)
(1.45351e-12 -1.95055e-13 -8.83712e-30 2.66748e-14 1.22012e-30 5.82396e-47)
(1.54647e-12 -1.94752e-13 -9.0942e-30 2.50161e-14 1.17707e-30 5.78699e-47)
(1.63835e-12 -1.91753e-13 -9.31605e-30 2.29212e-14 1.11967e-30 5.72458e-47)
(1.72786e-12 -1.85938e-13 9.54357e-30 2.04728e-14 -1.05375e-30 5.68847e-47)
(1.81364e-12 -1.77245e-13 9.71589e-30 1.77693e-14 -9.73671e-31 5.61196e-47)
(1.89437e-12 -1.65686e-13 -9.904e-30 1.49207e-14 8.87736e-31 5.57678e-47)
(1.96873e-12 -1.51342e-13 0 1.20444e-14 0 0)
(2.03546e-12 -1.34367e-13 0 9.26071e-15 0 0)
(2.09344e-12 -1.14991e-13 0 6.68729e-15 0 0)
(2.14165e-12 -9.351e-14 2.57259e-30 4.43434e-15 -1.1501e-31 3.32209e-48)
(2.18e-12 -7.03091e-14 2.57878e-30 2.60024e-15 -8.51612e-32 3.27904e-48)
(2.20384e-12 -4.55828e-14 -2.1857e-33 1.25478e-15 6.53613e-35 3.47242e-54)
(2.21798e-12 -2.03123e-14 -1.05246e-29 4.75123e-16 9.87599e-32 5.36964e-47)
(2.22035e-12 4.87642e-15 -2.01295e-32 2.78353e-16 -4.99473e-35 1.84459e-52)
(2.2107e-12 2.95132e-14 -3.19975e-29 6.43206e-16 -4.37113e-31 4.98311e-46)
(2.18938e-12 5.30828e-14 -2.13569e-29 1.52109e-15 -5.30224e-31 2.24316e-46)
(2.15675e-12 7.50991e-14 1.06934e-29 2.83743e-15 3.81409e-31 5.71183e-47)
(2.11347e-12 9.51187e-14 -1.06647e-29 4.49539e-15 -4.91987e-31 5.80243e-47)
(2.06039e-12 1.12757e-13 -2.1213e-29 6.38099e-15 -1.19073e-30 2.35723e-46)
(1.9986e-12 1.27705e-13 -1.05404e-29 8.36955e-15 -6.91326e-31 6.00571e-47)
(1.92937e-12 1.39736e-13 -2.08711e-29 1.0333e-14 -1.55299e-30 2.44237e-46)
(1.85411e-12 1.48721e-13 1.03303e-29 1.21477e-14 8.52153e-31 6.23399e-47)
(1.77433e-12 1.54624e-13 -2.05282e-32 1.37024e-14 -1.81893e-33 2.41456e-52)
(1.69159e-12 1.57509e-13 -1.00543e-29 1.49054e-14 -9.65172e-31 6.49278e-47)
(1.61346e-12 1.57827e-13 -9.89761e-30 1.56904e-14 -9.99568e-31 6.60897e-47)
(1.5279e-12 2.21954e-13 -4.63538e-30 3.27879e-14 -6.96357e-31 1.53421e-47)
(1.44863e-12 2.20663e-13 2.08717e-30 3.42042e-14 3.29289e-31 3.28862e-48)
(1.35981e-12 2.15532e-13 0 3.48056e-14 0 0)
(1.27365e-12 2.07652e-13 -3.34255e-30 3.45495e-14 -5.66436e-31 9.63415e-48)
(1.19124e-12 1.97351e-13 1.07148e-30 3.34382e-14 1.84887e-31 1.06142e-48)
(1.11351e-12 1.8499e-13 4.12015e-30 3.15204e-14 7.14524e-31 1.68405e-47)
(1.04122e-12 1.70945e-13 -5.95833e-30 2.88888e-14 -1.02353e-30 3.77708e-47)
(9.7497e-13 1.55582e-13 -1.91238e-30 2.56757e-14 -3.20109e-31 4.16839e-48)
(9.15224e-13 1.39245e-13 -1.85321e-30 2.20457e-14 -2.96538e-31 4.18084e-48)
(8.6229e-13 1.22238e-13 -3.58265e-30 1.81862e-14 -5.35706e-31 1.66351e-47)
(8.16358e-13 1.04818e-13 -1.73378e-30 1.42972e-14 -2.35551e-31 4.12785e-48)
(7.77519e-13 8.71834e-14 3.38405e-30 1.05806e-14 4.02924e-31 1.655e-47)
(7.45791e-13 6.94757e-14 1.65846e-30 7.22932e-15 1.64737e-31 4.15243e-48)
(7.21142e-13 5.17799e-14 3.2777e-33 4.41755e-15 2.50922e-34 1.55727e-53)
(7.03514e-13 3.41302e-14 -3.20755e-30 2.29254e-15 -1.68441e-31 1.65247e-47)
(6.9284e-13 1.65184e-14 -3.18169e-30 9.67856e-16 -8.4278e-32 1.65248e-47)
(6.89064e-13 -1.09513e-15 1.58086e-30 5.18827e-16 -6.43722e-34 4.10483e-48)
(6.92145e-13 -1.87691e-14 3.17863e-30 9.79945e-16 -8.7173e-32 1.65136e-47)
(7.0207e-13 -3.65686e-14 -6.40188e-30 2.34435e-15 3.44955e-31 6.59873e-47)
(7.18849e-13 -5.45521e-14 1.62036e-30 4.56512e-15 -1.28118e-31 4.12344e-48)
(7.42513e-13 -7.27593e-14 1.64747e-30 7.55824e-15 -1.68724e-31 4.11946e-48)
(7.73103e-13 -9.12007e-14 5.0516e-30 1.12069e-14 -6.2361e-31 3.71124e-47)
(8.10662e-13 -1.09848e-13 -3.45322e-30 1.5367e-14 4.89776e-31 1.64959e-47)
(8.55213e-13 -1.28629e-13 -1.7788e-30 1.9873e-14 2.79906e-31 4.1364e-48)
(9.06748e-13 -1.47418e-13 0 2.45453e-14 0 0)
(9.65205e-13 -1.66041e-13 -5.65353e-30 2.91964e-14 1.01562e-30 3.68218e-47)
(1.03045e-12 -1.84267e-13 3.89753e-30 3.36389e-14 -7.26888e-31 1.63419e-47)
(1.10226e-12 -2.01818e-13 -6.03682e-30 3.76919e-14 1.15124e-30 3.65493e-47)
(1.18031e-12 -2.18371e-13 0 4.1188e-14 0 0)
(1.26414e-12 -2.33561e-13 6.4474e-30 4.39798e-14 -1.23736e-30 3.6158e-47)
(1.35317e-12 -2.46999e-13 -2.44031e-29 4.59455e-14 4.62086e-30 4.82706e-46)
(1.44667e-12 -2.58274e-13 -4.58055e-30 4.69939e-14 8.4735e-31 1.58729e-47)
(1.54377e-12 -2.66971e-13 4.73278e-30 4.70692e-14 -8.46947e-31 1.58354e-47)
(1.64345e-12 -2.72685e-13 -7.2638e-30 4.61535e-14 1.24622e-30 3.5001e-47)
(1.74455e-12 -2.75034e-13 1.98984e-29 4.42695e-14 -3.24076e-30 2.46962e-46)
(1.84579e-12 -2.73675e-13 -1.78509e-29 4.1481e-14 2.73229e-30 1.87542e-46)
(1.94576e-12 -2.68321e-13 0 3.78923e-14 0 0)
(2.04299e-12 -2.58758e-13 5.31717e-30 3.36459e-14 -6.94663e-31 1.49954e-47)
(2.13594e-12 -2.44853e-13 5.36918e-30 2.89183e-14 -6.3491e-31 1.46217e-47)
(2.22304e-12 -2.26571e-13 -5.48364e-30 2.3915e-14 5.76539e-31 1.46296e-47)
(2.30272e-12 -2.03985e-13 2.7646e-30 1.88629e-14 -2.52825e-31 3.58881e-48)
(2.37348e-12 -1.77279e-13 -5.58739e-30 1.40018e-14 4.31388e-31 1.42124e-47)
(2.43391e-12 -1.46752e-13 5.61728e-30 9.57502e-15 -3.50883e-31 1.40037e-47)
(2.48271e-12 -1.12817e-13 -5.63085e-30 5.81847e-15 2.66172e-31 1.37923e-47)
(2.51879e-12 -7.59972e-14 2.81584e-30 2.95019e-15 -8.91731e-32 3.39943e-48)
(2.54165e-12 -3.69271e-14 0 1.15997e-15 0 0)
(2.54981e-12 3.78557e-15 -1.6904e-29 5.90282e-16 -1.16276e-32 1.21079e-46)
(2.54426e-12 4.46969e-14 1.13953e-29 1.32673e-15 1.95119e-31 5.51371e-47)
(2.52055e-12 8.47294e-14 0 3.34989e-15 0 0)
(2.48226e-12 1.23115e-13 3.40851e-29 6.57398e-15 1.69959e-30 5.06347e-46)
(2.42956e-12 1.59013e-13 -1.12813e-29 1.08477e-14 -7.45392e-31 5.67314e-47)
(2.36323e-12 1.91644e-13 -3.43752e-32 1.59616e-14 -2.79933e-33 5.02822e-52)
(2.28438e-12 2.20322e-13 -1.11465e-29 2.16569e-14 -1.09054e-30 5.89681e-47)
(2.19441e-12 2.44477e-13 1.09967e-29 2.76388e-14 1.24491e-30 5.98146e-47)
(2.09497e-12 2.63683e-13 -2.69864e-29 3.35917e-14 -3.45675e-30 3.77914e-46)
(1.98794e-12 2.77676e-13 5.3184e-30 3.91973e-14 7.57075e-31 1.54821e-47)
(1.87532e-12 2.86366e-13 2.59855e-30 4.41542e-14 4.04991e-31 3.92476e-48)
(1.75922e-12 2.89839e-13 -1.27327e-29 4.81969e-14 -2.1441e-30 1.00577e-46)
(1.64176e-12 2.88352e-13 -6.19739e-31 5.11136e-14 -1.1143e-31 2.55831e-49)
(1.53889e-12 2.83616e-13 1.03284e-29 5.27613e-14 1.95153e-30 7.59155e-47)
(1.40253e-12 2.74579e-13 2.85835e-31 5.42963e-14 5.74893e-32 6.39734e-50)
(1.30654e-12 2.68716e-13 1.92567e-30 5.58594e-14 4.07521e-31 3.12259e-48)
(1.20116e-12 2.58477e-13 0 5.62763e-14 0 0)
(1.10044e-12 2.45532e-13 9.99761e-31 5.55028e-14 2.30426e-31 1.00472e-48)
(1.00543e-12 2.30332e-13 -3.79404e-30 5.35511e-14 -8.99855e-31 1.58916e-47)
(9.16947e-13 2.13356e-13 -1.90997e-33 5.0491e-14 -4.4713e-34 4.20597e-54)
(8.35626e-13 1.95084e-13 8.60813e-31 4.64476e-14 2.09059e-31 9.90447e-49)
(7.61895e-13 1.75979e-13 0 4.1596e-14 0 0)
(6.95997e-13 1.56459e-13 0 3.6152e-14 0 0)
(6.38008e-13 1.36884e-13 -4.48647e-30 3.03612e-14 -1.00982e-30 3.56136e-47)
(5.87869e-13 1.17541e-13 4.29497e-30 2.44857e-14 9.03769e-31 3.55559e-47)
(5.45415e-13 9.86377e-14 -2.75812e-30 1.87907e-14 -5.26615e-31 1.58558e-47)
(5.10412e-13 8.02975e-14 -1.33089e-30 1.35306e-14 -2.2182e-31 3.95854e-48)
(4.82588e-13 6.25656e-14 0 8.93729e-15 0 0)
(4.61667e-13 4.54152e-14 -1.26117e-30 5.20888e-15 -1.32448e-31 3.95124e-48)
(4.47395e-13 2.87597e-14 -1.24483e-30 2.50146e-15 -8.59667e-32 3.97697e-48)
(4.3956e-13 1.24671e-14 -2.48103e-30 9.23169e-16 -7.67671e-32 1.60789e-47)
(4.38008e-13 -3.62407e-15 -3.72849e-30 5.30849e-16 2.97695e-32 3.64223e-47)
(4.4265e-13 -1.96869e-14 1.24355e-30 1.32935e-15 -5.78461e-32 4.00845e-48)