# Region type : patch bottom
# Faces  :   1000
# Area   :   6.239977e-01
# Time       	sumDirection(phi)
0.0119048    	0.000000e+00
0.0132083    	3.772910e-06
0.0145102    	3.512164e-07
0.015812     	1.536704e-07
0.0171173    	9.922494e-08
0.0184226    	8.843003e-08
0.0197261    	8.160060e-08
0.0210297    	7.707110e-08
0.0223315    	7.390509e-08
0.0236316    	7.160092e-08
0.02493      	6.986367e-08
0.0262266    	6.848855e-08
0.0275232    	6.746820e-08
0.0288181    	6.664070e-08
0.030113     	6.598685e-08
0.031408     	6.553153e-08
0.0327029    	6.513260e-08
0.0339978    	6.478811e-08
0.0352927    	6.464980e-08
0.0365876    	6.455272e-08
0.0378825    	6.453485e-08
0.0391774    	6.446300e-08
0.0404706    	6.449210e-08
0.0417637    	6.440780e-08
0.0430552    	6.443555e-08
0.0443466    	6.443154e-08
0.0456363    	6.442762e-08
0.0469259    	6.447686e-08
0.0482139    	6.452289e-08
0.0495001    	6.461066e-08
0.0507845    	6.467339e-08
0.052069     	6.479368e-08
0.0533517    	6.490029e-08
0.0546327    	6.504815e-08
0.0559137    	6.519155e-08
0.0571929    	6.532329e-08
0.0584722    	6.545334e-08
0.0597497    	6.547690e-08
0.0610272    	6.545745e-08
0.062303     	6.547038e-08
0.0635788    	6.550457e-08
0.0648546    	6.554677e-08
0.0661286    	6.560038e-08
0.0674026    	6.565717e-08
0.0686749    	6.570261e-08
0.0699472    	6.571931e-08
0.0712178    	6.572185e-08
0.0724866    	6.573943e-08
0.0737537    	6.575039e-08
0.0750208    	6.575259e-08
0.0762862    	6.572681e-08
0.0775498    	6.570154e-08
0.0788117    	6.569421e-08
0.0800719    	6.576427e-08
0.0813303    	6.571179e-08
0.0825871    	6.561980e-08
0.0838421    	6.560495e-08
0.0850954    	6.562028e-08
0.086347     	6.562674e-08
0.0875968    	6.563875e-08
0.088845     	6.566423e-08
0.0900914    	6.570588e-08
0.0913362    	6.574937e-08
0.0925792    	6.580554e-08
0.0938206    	6.586893e-08
0.0950602    	6.596176e-08
0.0962998    	6.607990e-08
0.0975378    	6.621795e-08
0.098774     	6.635690e-08
0.100009     	6.649788e-08
0.101241     	6.659932e-08
0.102473     	6.672061e-08
0.103702     	6.683125e-08
0.104928     	6.696692e-08
0.106153     	6.709438e-08
0.107375     	6.722308e-08
0.108597     	6.736369e-08
0.109816     	6.746894e-08
0.111032     	6.758976e-08
0.112247     	6.771661e-08
0.113459     	6.783824e-08
0.11467      	6.795973e-08
0.11588      	6.808090e-08
0.117088     	6.821159e-08
0.118294     	6.835505e-08
0.119498     	6.852717e-08
0.120701     	6.870854e-08
0.121903     	6.887583e-08
0.123102     	6.906293e-08
0.1243       	6.922222e-08
0.125496     	6.937643e-08
0.126691     	6.953986e-08
0.127884     	6.970172e-08
0.129075     	6.985936e-08
0.130265     	7.000928e-08
0.131453     	7.016797e-08
0.13264      	7.034047e-08
0.133825     	7.055090e-08
0.135008     	7.071828e-08
0.136188     	7.092515e-08
0.137367     	7.112996e-08
0.138544     	7.135700e-08
0.139719     	7.158558e-08
0.140892     	7.181069e-08
0.142065     	7.202852e-08
0.143235     	7.222628e-08
0.144404     	7.246728e-08
0.145573     	7.268963e-08
0.14674      	7.290447e-08
0.147906     	7.311759e-08
0.14907      	7.334321e-08
0.150234     	7.356849e-08
0.151396     	7.380302e-08
0.152557     	7.403550e-08
0.153718     	7.427264e-08
0.154877     	7.449722e-08
0.156036     	7.474379e-08
0.157194     	7.496852e-08
0.158352     	7.519802e-08
0.159508     	7.542864e-08
0.160664     	7.566955e-08
0.161819     	7.588907e-08
0.162973     	7.611212e-08
0.164126     	7.633750e-08
0.165279     	7.658257e-08
0.16643      	7.680059e-08
0.167582     	7.701300e-08
0.168731     	7.723342e-08
0.16988      	7.745688e-08
0.171028     	7.767196e-08
0.172174     	7.788045e-08
0.173321     	7.808480e-08
0.174466     	7.829212e-08
0.175611     	7.848469e-08
0.176754     	7.866425e-08
0.177898     	7.883689e-08
0.179039     	7.900163e-08
0.180181     	7.918304e-08
0.181322     	7.934472e-08
0.182462     	7.950356e-08
0.183602     	7.966969e-08
0.184741     	7.982922e-08
0.185879     	7.998521e-08
0.187018     	8.013728e-08
0.188155     	8.029425e-08
0.189292     	8.041964e-08
0.190429     	8.056895e-08
0.191566     	8.066390e-08
0.192703     	8.077477e-08
0.193838     	8.085289e-08
0.194974     	8.095994e-08
0.196109     	8.108471e-08
0.197245     	8.115541e-08
0.198379     	8.123694e-08
0.199512     	8.133703e-08
0.200646     	8.142475e-08
0.20178      	8.154535e-08
0.202914     	8.164515e-08
0.204046     	8.173086e-08
0.205177     	8.181500e-08
0.206306     	8.194417e-08
0.207435     	8.204072e-08
0.208562     	8.210422e-08
0.209688     	8.215976e-08
0.210812     	8.220976e-08
0.211936     	8.227383e-08
0.213059     	8.234598e-08
0.21418      	8.241857e-08
0.215301     	8.248878e-08
0.21642      	8.256478e-08
0.21754      	8.264277e-08
0.218658     	8.271300e-08
0.219774     	8.277841e-08
0.22089      	8.288550e-08
0.222005     	8.296228e-08
0.223118     	8.306149e-08
0.224229     	8.315312e-08
0.225339     	8.325729e-08
0.226447     	8.337095e-08
0.227554     	8.347718e-08
0.228659     	8.356868e-08
0.229762     	8.367230e-08
0.230866     	8.380849e-08
0.231968     	8.398113e-08
0.23307      	8.419418e-08
0.23417      	8.443872e-08
0.235269     	8.462614e-08
0.236366     	8.462925e-08
0.23746      	8.461009e-08
0.238552     	8.457149e-08
0.239643     	8.477751e-08
0.240733     	8.499320e-08
0.241822     	8.522679e-08
0.24291      	8.547599e-08
0.243996     	8.572653e-08
0.245082     	8.601307e-08
0.246167     	8.632030e-08
0.247252     	8.660545e-08
0.248336     	8.683335e-08
0.249419     	8.705898e-08
0.250502     	8.734571e-08
0.251584     	8.761635e-08
0.252664     	8.788206e-08
0.253744     	8.814925e-08
0.254822     	8.849190e-08
0.255901     	8.882374e-08
0.256979     	8.920847e-08
0.258056     	8.947936e-08
0.259133     	8.974343e-08
0.260208     	9.004059e-08
0.261282     	9.051386e-08
0.262349     	9.082989e-08
0.263411     	9.120684e-08
0.264466     	9.147602e-08
0.265515     	9.185647e-08
0.266558     	9.228663e-08
0.267596     	9.264944e-08
0.268627     	9.290395e-08
0.269655     	9.314322e-08
0.270676     	9.341552e-08
0.271692     	9.371970e-08
0.272703     	9.406843e-08
0.273711     	9.445207e-08
0.274712     	9.479507e-08
0.27571      	9.516330e-08
0.276704     	9.544441e-08
0.277693     	9.571221e-08
0.27868      	9.599199e-08
0.279663     	9.624603e-08
0.280641     	9.648382e-08
0.281617     	9.677903e-08
0.282591     	9.704224e-08
0.283562     	9.728853e-08
0.28453      	9.753911e-08
0.285495     	9.786443e-08
0.28646      	9.821188e-08
0.287421     	9.857953e-08
0.288382     	9.893941e-08
0.289341     	9.930917e-08
0.290298     	9.965055e-08
0.291255     	1.000127e-07
0.29221      	1.003069e-07
0.293165     	1.005510e-07
0.29412      	1.008518e-07
0.295073     	1.011212e-07
0.296024     	1.013786e-07
0.296973     	1.016422e-07
0.297921     	1.018898e-07
0.298865     	1.022011e-07
0.299809     	1.024823e-07
0.300751     	1.026505e-07
0.301693     	1.027940e-07
0.302634     	1.029172e-07
0.303574     	1.031373e-07
0.304513     	1.033477e-07
0.305452     	1.035636e-07
0.306391     	1.036924e-07
0.307329     	1.036963e-07
0.308268     	1.038269e-07
0.309208     	1.039590e-07
0.310147     	1.040941e-07
0.311089     	1.042691e-07
0.31203      	1.043732e-07
0.312971     	1.044857e-07
0.313911     	1.045741e-07
0.314851     	1.046832e-07
0.31579      	1.047517e-07
0.316729     	1.048490e-07
0.317667     	1.049351e-07
0.318607     	1.050565e-07
0.319547     	1.051871e-07
0.320487     	1.052455e-07
0.321428     	1.053099e-07
0.322369     	1.052588e-07
0.323311     	1.052711e-07
0.324252     	1.051836e-07
0.325193     	1.051033e-07
0.326135     	1.050449e-07
0.327078     	1.049720e-07
0.32802      	1.049810e-07
0.328964     	1.049990e-07
0.329908     	1.049914e-07
0.330853     	1.050139e-07
0.331798     	1.049796e-07
0.332745     	1.049293e-07
0.333692     	1.049164e-07
0.334641     	1.049323e-07
0.335591     	1.049027e-07
0.33654      	1.048839e-07
0.337489     	1.049036e-07
0.338438     	1.048706e-07
0.339389     	1.048124e-07
0.340339     	1.047028e-07
0.341291     	1.046565e-07
0.342243     	1.045967e-07
0.343196     	1.045685e-07
0.344151     	1.044974e-07
0.345107     	1.044029e-07
0.346064     	1.041573e-07
0.347023     	1.040656e-07
0.347982     	1.039009e-07
0.348942     	1.038127e-07
0.349903     	1.037313e-07
0.350864     	1.036324e-07
0.351826     	1.035382e-07
0.352789     	1.035599e-07
0.353754     	1.034907e-07
0.35472      	1.033787e-07
0.355687     	1.032529e-07
0.356656     	1.031363e-07
0.357626     	1.029882e-07
0.358598     	1.028354e-07
0.35957      	1.026700e-07
0.360542     	1.025958e-07
0.361515     	1.024450e-07
0.362488     	1.022633e-07
0.363463     	1.020300e-07
0.364438     	1.019108e-07
0.365413     	1.017847e-07
0.366389     	1.015995e-07
0.367365     	1.014502e-07
0.368343     	1.013435e-07
0.369321     	1.012418e-07
0.3703       	1.011012e-07
0.371281     	1.009398e-07
0.372262     	1.008053e-07
0.373244     	1.006952e-07
0.374228     	1.005487e-07
0.375212     	1.004009e-07
0.376198     	1.002667e-07
0.377183     	1.000671e-07
0.378168     	9.987108e-08
0.379154     	9.968092e-08
0.380141     	9.950855e-08
0.381128     	9.928700e-08
0.382117     	9.914227e-08
0.383105     	9.898807e-08
0.384095     	9.883952e-08
0.385086     	9.865949e-08
0.386077     	9.848174e-08
0.387071     	9.836576e-08
0.388064     	9.812731e-08
0.389059     	9.791672e-08
0.390056     	9.776955e-08
0.391053     	9.762082e-08
0.392049     	9.744498e-08
0.393046     	9.725916e-08
0.394042     	9.705822e-08
0.395041     	9.684720e-08
0.396039     	9.665619e-08
0.397039     	9.648769e-08
0.398039     	9.631921e-08
0.399041     	9.614655e-08
0.400042     	9.599831e-08
0.401044     	9.581945e-08
0.402045     	9.566854e-08
0.403049     	9.550484e-08
0.404052     	9.530957e-08
0.405055     	9.513879e-08
0.406058     	9.492458e-08
0.407063     	9.476059e-08
0.408068     	9.461758e-08
0.409075     	9.448711e-08
0.410083     	9.429811e-08
0.411092     	9.417029e-08
0.412102     	9.404930e-08
0.413114     	9.394333e-08
0.414128     	9.375768e-08
0.415139     	9.356750e-08
0.416149     	9.338608e-08
0.417158     	9.320198e-08
0.418165     	9.306308e-08
0.419169     	9.298273e-08
0.420173     	9.284618e-08
0.421174     	9.274352e-08
0.422175     	9.262314e-08
0.423175     	9.249729e-08
0.424175     	9.236170e-08
0.425173     	9.227385e-08
0.426171     	9.219157e-08
0.427167     	9.207929e-08
0.428163     	9.194229e-08
0.429159     	9.176399e-08
0.430156     	9.166194e-08
0.431152     	9.153611e-08
0.432148     	9.143438e-08
0.433144     	9.132504e-08
0.434141     	9.121839e-08
0.435137     	9.108127e-08
0.436133     	9.097043e-08
0.437131     	9.084220e-08
0.438129     	9.071347e-08
0.439127     	9.062634e-08
0.440127     	9.052700e-08
0.441127     	9.042629e-08
0.442126     	9.028870e-08
0.443128     	9.017933e-08
0.44413      	9.004901e-08
0.445133     	8.990950e-08
0.446136     	8.980462e-08
0.447141     	8.969514e-08
0.448147     	8.961451e-08
0.449152     	8.952465e-08
0.450157     	8.941819e-08
0.451164     	8.931255e-08
0.452171     	8.923471e-08
0.453178     	8.917198e-08
0.454187     	8.906578e-08
0.455196     	8.894622e-08
0.456207     	8.883742e-08
0.457217     	8.873705e-08
0.45823      	8.865982e-08
0.459243     	8.856278e-08
0.460257     	8.849026e-08
0.461274     	8.840528e-08
0.46229      	8.829094e-08
0.463309     	8.822106e-08
0.464329     	8.813481e-08
0.465349     	8.804461e-08
0.466372     	8.797626e-08
0.467396     	8.790463e-08
0.468422     	8.782339e-08
0.469448     	8.776103e-08
0.470476     	8.773402e-08
0.471505     	8.767343e-08
0.472535     	8.763248e-08
0.473565     	8.755381e-08
0.474595     	8.751399e-08
0.475625     	8.747414e-08
0.476658     	8.747254e-08
0.47769      	8.747635e-08
0.478722     	8.744766e-08
0.479756     	8.740646e-08
0.480791     	8.735994e-08
0.481825     	8.734536e-08
0.482861     	8.729452e-08
0.483898     	8.727672e-08
0.484936     	8.724517e-08
0.485975     	8.719534e-08
0.487015     	8.716214e-08
0.488056     	8.712995e-08
0.489098     	8.714181e-08
0.490141     	8.717575e-08
0.491186     	8.722350e-08
0.492233     	8.719948e-08
0.49328      	8.716623e-08
0.494329     	8.713751e-08
0.49538      	8.710544e-08
0.496431     	8.705025e-08
0.497485     	8.704944e-08
0.498538     	8.695747e-08
0.499594     	8.691288e-08
0.50065      	8.687921e-08
0.501705     	8.687337e-08
0.502763     	8.686542e-08
0.503821     	8.682401e-08
0.504879     	8.683668e-08
0.505937     	8.684302e-08
0.506997     	8.684022e-08
0.508058     	8.678794e-08
0.509118     	8.673961e-08
0.51018      	8.671448e-08
0.511243     	8.668650e-08
0.512305     	8.667580e-08
0.51337      	8.668328e-08
0.514435     	8.668464e-08
0.515502     	8.671449e-08
0.516569     	8.675426e-08
0.517639     	8.676456e-08
0.518709     	8.681698e-08
0.51978      	8.683665e-08
0.520852     	8.687600e-08
0.521927     	8.689373e-08
0.523001     	8.690878e-08
0.524078     	8.696172e-08
0.525155     	8.696604e-08
0.526234     	8.694161e-08
0.527313     	8.695199e-08
0.528395     	8.696456e-08
0.529476     	8.701622e-08
0.53056      	8.707392e-08
0.531645     	8.703833e-08
0.532729     	8.704849e-08
0.533813     	8.708606e-08
0.5349       	8.711664e-08
0.535986     	8.714945e-08
0.537073     	8.721213e-08
0.53816      	8.726084e-08
0.539249     	8.729961e-08
0.540338     	8.734703e-08
0.541427     	8.739555e-08
0.542519     	8.742677e-08
0.543611     	8.749278e-08
0.544703     	8.756540e-08
0.545797     	8.759304e-08
0.546892     	8.776854e-08
0.547986     	8.785294e-08
0.549083     	8.796637e-08
0.550181     	8.805662e-08
0.55128      	8.812377e-08
0.55238      	8.820752e-08
0.553477     	8.832779e-08
0.554572     	8.849745e-08
0.555666     	8.866940e-08
0.556758     	8.884181e-08
0.557847     	8.899004e-08
0.558936     	8.915314e-08
0.560022     	8.931412e-08
0.561106     	8.951907e-08
0.56219      	8.968085e-08
0.563271     	8.972555e-08
0.564352     	8.986656e-08
0.56543      	8.998590e-08
0.566508     	9.002271e-08
0.567584     	9.006774e-08
0.568657     	9.016548e-08
0.56973      	9.032986e-08
0.5708       	9.044032e-08
0.571868     	9.054464e-08
0.572936     	9.067083e-08
0.574001     	9.079139e-08
0.575066     	9.092292e-08
0.576131     	9.111315e-08
0.577193     	9.128290e-08
0.578255     	9.149570e-08
0.579318     	9.164633e-08
0.58038      	9.172101e-08
0.581442     	9.179395e-08
0.582505     	9.187960e-08
0.583567     	9.196833e-08
0.584629     	9.208185e-08
0.585692     	9.219979e-08
0.586751     	9.225594e-08
0.587811     	9.235853e-08
0.58887      	9.247332e-08
0.58993      	9.261812e-08
0.59099      	9.272942e-08
0.592047     	9.281248e-08
0.593103     	9.291240e-08
0.59416      	9.304455e-08
0.595214     	9.317605e-08
0.596269     	9.330394e-08
0.597323     	9.341828e-08
0.598377     	9.351253e-08
0.599431     	9.362014e-08
0.600482     	9.376147e-08
0.601534     	9.389033e-08
0.602582     	9.401453e-08
0.603631     	9.410991e-08
0.604679     	9.422245e-08
0.605728     	9.430003e-08
0.606777     	9.443123e-08
0.607825     	9.455147e-08
0.608874     	9.467009e-08
0.609922     	9.478012e-08
0.610968     	9.488451e-08
0.612014     	9.496073e-08
0.61306      	9.498583e-08
0.614106     	9.502445e-08
0.615151     	9.513980e-08
0.616194     	9.520818e-08
0.617237     	9.529893e-08
0.61828      	9.539072e-08
0.619323     	9.551478e-08
0.620366     	9.558995e-08
0.621406     	9.565955e-08
0.622446     	9.574030e-08
0.623483     	9.584935e-08
0.624521     	9.593003e-08
0.625558     	9.603178e-08
0.626592     	9.612583e-08
0.627627     	9.623952e-08
0.628661     	9.637058e-08
0.629695     	9.646288e-08
0.63073      	9.651124e-08
0.631764     	9.658303e-08
0.632799     	9.666824e-08
0.63383      	9.674448e-08
0.634861     	9.687041e-08
0.635893     	9.700096e-08
0.636924     	9.708942e-08
0.637956     	9.719075e-08
0.638984     	9.728513e-08
0.640013     	9.736628e-08
0.641041     	9.749559e-08
0.64207      	9.758641e-08
0.643096     	9.768592e-08
0.644121     	9.779930e-08
0.645144     	9.787681e-08
0.646166     	9.796841e-08
0.647189     	9.809307e-08
0.648209     	9.818199e-08
0.649228     	9.831229e-08
0.650245     	9.845161e-08
0.651262     	9.859436e-08
0.652279     	9.879836e-08
0.653292     	9.908894e-08
0.654306     	9.961794e-08
0.65532      	1.005325e-07
0.656334     	1.020404e-07
0.657345     	1.042694e-07
0.658355     	1.064528e-07
0.659369     	1.075246e-07
0.66038      	1.069028e-07
0.661391     	1.066407e-07
0.662401     	1.069844e-07
0.663412     	1.072777e-07
0.664423     	1.074027e-07
0.665434     	1.070519e-07
0.666444     	1.070196e-07
0.667455     	1.062883e-07
0.668466     	1.053662e-07
0.669477     	1.046882e-07
0.670488     	1.041951e-07
0.671498     	1.038269e-07
0.672506     	1.036556e-07
0.673514     	1.035183e-07
0.674521     	1.034742e-07
0.675529     	1.034602e-07
0.67654      	1.034570e-07
0.677551     	1.034515e-07
0.678562     	1.034314e-07
0.679572     	1.034541e-07
0.680583     	1.035021e-07
0.681594     	1.035370e-07
0.682605     	1.035805e-07
0.683612     	1.036688e-07
0.68462      	1.037838e-07
0.685624     	1.038874e-07
0.686629     	1.040290e-07
0.687633     	1.041086e-07
0.688634     	1.041724e-07
0.689635     	1.042507e-07
0.690637     	1.043119e-07
0.691638     	1.043570e-07
0.692639     	1.044464e-07
0.69364      	1.045312e-07
0.694641     	1.044659e-07
0.695639     	1.042316e-07
0.696637     	1.040221e-07
0.697635     	1.039525e-07
0.698633     	1.040339e-07
0.699631     	1.041729e-07
0.700629     	1.046115e-07
0.701627     	1.051410e-07
0.702625     	1.049899e-07
0.703623     	1.043575e-07
0.70462      	1.038333e-07
0.705618     	1.034724e-07
0.706616     	1.032330e-07
0.707611     	1.030454e-07
0.708605     	1.029205e-07
0.7096       	1.026633e-07
0.710598     	1.025034e-07
0.711592     	1.023397e-07
0.712587     	1.022292e-07
0.713581     	1.021252e-07
0.714576     	1.020491e-07
0.71557      	1.020353e-07
0.716565     	1.020315e-07
0.717559     	1.020498e-07
0.718554     	1.020879e-07
0.719548     	1.021235e-07
0.720543     	1.021023e-07
0.721537     	1.021746e-07
0.722532     	1.024197e-07
0.723526     	1.027432e-07
0.724521     	1.032338e-07
0.725515     	1.037670e-07
0.72651      	1.034517e-07
0.727504     	1.032179e-07
0.728499     	1.033884e-07
0.729493     	1.039291e-07
0.730488     	1.047477e-07
0.731482     	1.048865e-07
0.732477     	1.040557e-07
0.733471     	1.034951e-07
0.734466     	1.031276e-07
0.73546      	1.028408e-07
0.736455     	1.023959e-07
0.737449     	1.019823e-07
0.738448     	1.022076e-07
0.739446     	1.024784e-07
0.740444     	1.026995e-07
0.741439     	1.030582e-07
0.742433     	1.031226e-07
0.743432     	1.027164e-07
0.74443      	1.022932e-07
0.745428     	1.020109e-07
0.746427     	1.018074e-07
0.747425     	1.015949e-07
0.748427     	1.013801e-07
0.749429     	1.011476e-07
0.750432     	1.009055e-07
0.751434     	1.007340e-07
0.752436     	1.005919e-07
0.753439     	1.004170e-07
0.754441     	1.002664e-07
0.755447     	1.001806e-07
0.756454     	1.000966e-07
0.75746      	1.000141e-07
0.758466     	9.993542e-08
0.759473     	9.988306e-08
0.760479     	9.982788e-08
0.761486     	9.959878e-08
0.762492     	9.936359e-08
0.763498     	9.914557e-08
0.764509     	9.893263e-08
0.76552      	9.873651e-08
0.766535     	9.853752e-08
0.76755      	9.834082e-08
0.768569     	9.818411e-08
0.769589     	9.804145e-08
0.770613     	9.790109e-08
0.771637     	9.783702e-08
0.772666     	9.780972e-08
0.773699     	9.776959e-08
0.774732     	9.768964e-08
0.77577      	9.760359e-08
0.776813     	9.753084e-08
0.777861     	9.739956e-08
0.778914     	9.725045e-08
0.779967     	9.711680e-08
0.781025     	9.702013e-08
0.782088     	9.691612e-08
0.783156     	9.682132e-08
0.784224     	9.672707e-08
0.785298     	9.667120e-08
0.786376     	9.662549e-08
0.787455     	9.648612e-08
0.78854      	9.638044e-08
0.78963      	9.629280e-08
0.79072      	9.622465e-08
0.791815     	9.615908e-08
0.792917     	9.606984e-08
0.794018     	9.603066e-08
0.79512      	9.607115e-08
0.796222     	9.615353e-08
0.797329     	9.626210e-08
0.798436     	9.614703e-08
0.799544     	9.593382e-08
0.800651     	9.584112e-08
0.801765     	9.570275e-08
0.802879     	9.560773e-08
0.803993     	9.554245e-08
0.805113     	9.550876e-08
0.806233     	9.543447e-08
0.807353     	9.533883e-08
0.808479     	9.526957e-08
0.809606     	9.521963e-08
0.810732     	9.521103e-08
0.811866     	9.520395e-08
0.812999     	9.525991e-08
0.814132     	9.533557e-08
0.815266     	9.550073e-08
0.816406     	9.567842e-08
0.817546     	9.568763e-08
0.818687     	9.570137e-08
0.819827     	9.570854e-08
0.820975     	9.573067e-08
0.822122     	9.580729e-08
0.82327      	9.575088e-08
0.824417     	9.538771e-08
0.825573     	9.515347e-08
0.826728     	9.494148e-08
0.827875     	9.476428e-08
0.829023     	9.469450e-08
0.83017      	9.446352e-08
0.831318     	9.425067e-08
0.832465     	9.416298e-08
0.833613     	9.404322e-08
0.834752     	9.390671e-08
0.835892     	9.382203e-08
0.837032     	9.370075e-08
0.838171     	9.353262e-08
0.839311     	9.341090e-08
0.840451     	9.332743e-08
0.84159      	9.330994e-08
0.84273      	9.327474e-08
0.84387      	9.328669e-08
0.845009     	9.316489e-08
0.846149     	9.307549e-08
0.847288     	9.295766e-08
0.848428     	9.294304e-08
0.849568     	9.290456e-08
0.850716     	9.286344e-08
0.851864     	9.269470e-08
0.853013     	9.255001e-08
0.854161     	9.249874e-08
0.855309     	9.242093e-08
0.856458     	9.238208e-08
0.857606     	9.231561e-08
0.858754     	9.223744e-08
0.859903     	9.219826e-08
0.861051     	9.218515e-08
0.862199     	9.217637e-08
0.863348     	9.206014e-08
0.864506     	9.198327e-08
0.865664     	9.190887e-08
0.866822     	9.191711e-08
0.86798      	9.187885e-08
0.869138     	9.179232e-08
0.870296     	9.176192e-08
0.871454     	9.168230e-08
0.872612     	9.163519e-08
0.87377      	9.156275e-08
0.874928     	9.148984e-08
0.876097     	9.139790e-08
0.877266     	9.130859e-08
0.878435     	9.127946e-08
0.879604     	9.127656e-08
0.880773     	9.125939e-08
0.881942     	9.126354e-08
0.883111     	9.121570e-08
0.88428      	9.120438e-08
0.885449     	9.116825e-08
0.886617     	9.113117e-08
0.887798     	9.106201e-08
0.88898      	9.100449e-08
0.890161     	9.100291e-08
0.891342     	9.098741e-08
0.892523     	9.097438e-08
0.893704     	9.095395e-08
0.894885     	9.093913e-08
0.896066     	9.094500e-08
0.897247     	9.093414e-08
0.898428     	9.094907e-08
0.899609     	9.092776e-08
0.90079      	9.092577e-08
0.901971     	9.092025e-08
0.903152     	9.091796e-08
0.904333     	9.091426e-08
0.905515     	9.089453e-08
0.906696     	9.086004e-08
0.907877     	9.077708e-08
0.909073     	9.075056e-08
0.910269     	9.075700e-08
0.911466     	9.076893e-08
0.912662     	9.075061e-08
0.913859     	9.078494e-08
0.915055     	9.081641e-08
0.916251     	9.084442e-08
0.917448     	9.082110e-08
0.918644     	9.085209e-08
0.919841     	9.091849e-08
0.921037     	9.098926e-08
0.922234     	9.098633e-08
0.92343      	9.096645e-08
0.924626     	9.097746e-08
0.925823     	9.100437e-08
0.927019     	9.102410e-08
0.928216     	9.107849e-08
0.929412     	9.112018e-08
0.930608     	9.115937e-08
0.931805     	9.118658e-08
0.933001     	9.120121e-08
0.934198     	9.124834e-08
0.935394     	9.131169e-08
0.93659      	9.135150e-08
0.937787     	9.140879e-08
0.938983     	9.150526e-08
0.94018      	9.161419e-08
0.941376     	9.171435e-08
0.942572     	9.188911e-08
0.943769     	9.202859e-08
0.944965     	9.206012e-08
0.946162     	9.207541e-08
0.947358     	9.213454e-08
0.948554     	9.213283e-08
0.949751     	9.217368e-08
0.950947     	9.223037e-08
0.952144     	9.226981e-08
0.95334      	9.229812e-08
0.954537     	9.236326e-08
0.955733     	9.241261e-08
0.956929     	9.247707e-08
0.958126     	9.247921e-08
0.959322     	9.252546e-08
0.960519     	9.257122e-08
0.961715     	9.260809e-08
0.962911     	9.264066e-08
0.964108     	9.271523e-08
0.965304     	9.277168e-08
0.966501     	9.284071e-08
0.967697     	9.289926e-08
0.968893     	9.297334e-08
0.97009      	9.302381e-08
0.971286     	9.306387e-08
0.972483     	9.312322e-08
0.973679     	9.317096e-08
0.974875     	9.323677e-08
0.976072     	9.326936e-08
0.977268     	9.334207e-08
0.978465     	9.345110e-08
0.979661     	9.356275e-08
0.980857     	9.367845e-08
0.982054     	9.378799e-08
0.98325      	9.398034e-08
0.984447     	9.424356e-08
0.985643     	9.453030e-08
0.98684      	9.467262e-08
0.988036     	9.459037e-08
0.989232     	9.452464e-08
0.990429     	9.450844e-08
0.991625     	9.454923e-08
0.992822     	9.459378e-08
0.994018     	9.464707e-08
0.995214     	9.469888e-08
0.996411     	9.480757e-08
0.997607     	9.487476e-08
0.998804     	9.497417e-08
1            	9.507200e-08
1.00121      	9.516362e-08
1.00241      	9.520567e-08
1.00361      	9.527479e-08
1.00482      	9.533158e-08
1.00602      	9.541891e-08
1.00722      	9.548578e-08
1.00841      	9.558903e-08
1.00961      	9.568438e-08
1.0108       	9.578672e-08
1.012        	9.588364e-08
1.01319      	9.598284e-08
1.01438      	9.609023e-08
1.01557      	9.618174e-08
1.01675      	9.627264e-08
1.01794      	9.636768e-08
1.01912      	9.647016e-08
1.0203       	9.657051e-08
1.02148      	9.664609e-08
1.02266      	9.672684e-08
1.02384      	9.683273e-08
1.02501      	9.691105e-08
1.02618      	9.693658e-08
1.02735      	9.700419e-08
1.02852      	9.707979e-08
1.02969      	9.718566e-08
1.03085      	9.723606e-08
1.03201      	9.733310e-08
1.03317      	9.741511e-08
1.03433      	9.749672e-08
1.03549      	9.758969e-08
1.03664      	9.770253e-08
1.03779      	9.782334e-08
1.03894      	9.793965e-08
1.04009      	9.806823e-08
1.04123      	9.821437e-08
1.04237      	9.833554e-08
1.04351      	9.846155e-08
1.04465      	9.858649e-08
1.04578      	9.870430e-08
1.04692      	9.882077e-08
1.04805      	9.892687e-08
1.04918      	9.903631e-08
1.0503       	9.914477e-08
1.05143      	9.925160e-08
1.05255      	9.935943e-08
1.05367      	9.948944e-08
1.05479      	9.962061e-08
1.05591      	9.969018e-08
1.05702      	9.981506e-08
1.05814      	9.990283e-08
1.05925      	9.999757e-08
1.06035      	1.000828e-07
1.06146      	1.001812e-07
1.06256      	1.003024e-07
1.06367      	1.003772e-07
1.06476      	1.004882e-07
1.06586      	1.006389e-07
1.06696      	1.007330e-07
1.06805      	1.008199e-07
1.06914      	1.009734e-07
1.07024      	1.010685e-07
1.07133      	1.011578e-07
1.07241      	1.012718e-07
1.0735       	1.013554e-07
1.07459      	1.014687e-07
1.07567      	1.015908e-07
1.07676      	1.016897e-07
1.07784      	1.017922e-07
1.07892      	1.019027e-07
1.08         	1.020138e-07
1.08108      	1.021344e-07
1.08216      	1.022321e-07
1.08323      	1.023509e-07
1.08431      	1.024395e-07
1.08538      	1.025025e-07
1.08645      	1.026150e-07
1.08753      	1.026856e-07
1.0886       	1.027682e-07
1.08967      	1.028480e-07
1.09073      	1.029479e-07
1.0918       	1.030538e-07
1.09287      	1.031508e-07
1.09394      	1.032257e-07
1.095        	1.033071e-07
1.09607      	1.034376e-07
1.09713      	1.035758e-07
1.09819      	1.037083e-07
1.09926      	1.038586e-07
1.10032      	1.039747e-07
1.10138      	1.041153e-07
1.10244      	1.042565e-07
1.10349      	1.043668e-07
1.10455      	1.045150e-07
1.1056       	1.046562e-07
1.10666      	1.048203e-07
1.10771      	1.049554e-07
1.10877      	1.050994e-07
1.10982      	1.052250e-07
1.11087      	1.053266e-07
1.11192      	1.054611e-07
1.11297      	1.056003e-07
1.11402      	1.057167e-07
1.11507      	1.057645e-07
1.11611      	1.058366e-07
1.11716      	1.059514e-07
1.11821      	1.060652e-07
1.11925      	1.061986e-07
1.1203       	1.063225e-07
1.12135      	1.064234e-07
1.12239      	1.065216e-07
1.12344      	1.065925e-07
1.12448      	1.067100e-07
1.12553      	1.068148e-07
1.12657      	1.069145e-07
1.12761      	1.070197e-07
1.12865      	1.070916e-07
1.1297       	1.071959e-07
1.13074      	1.072688e-07
1.13178      	1.073573e-07
1.13282      	1.074416e-07
1.13385      	1.075381e-07
1.13489      	1.076611e-07
1.13593      	1.077641e-07
1.13697      	1.078685e-07
1.138        	1.079627e-07
1.13904      	1.080744e-07
1.14008      	1.081617e-07
1.14111      	1.082481e-07
1.14214      	1.083552e-07
1.14317      	1.084523e-07
1.1442       	1.085497e-07
1.14523      	1.086463e-07
1.14626      	1.087470e-07
1.14729      	1.088305e-07
1.14832      	1.089221e-07
1.14935      	1.089790e-07
1.15038      	1.090565e-07
1.15141      	1.091388e-07
1.15244      	1.092244e-07
1.15347      	1.092952e-07
1.15449      	1.093684e-07
1.15552      	1.094612e-07
1.15654      	1.095232e-07
1.15757      	1.095686e-07
1.1586       	1.096187e-07
1.15962      	1.096608e-07
1.16065      	1.097351e-07
1.16168      	1.097861e-07
1.16271      	1.098485e-07
1.16373      	1.099181e-07
1.16476      	1.099822e-07
1.16579      	1.100334e-07
1.16682      	1.100774e-07
1.16784      	1.101291e-07
1.16887      	1.101898e-07
1.1699       	1.102666e-07
1.17093      	1.103013e-07
1.17195      	1.103635e-07
1.17298      	1.104062e-07
1.17401      	1.104658e-07
1.17503      	1.105033e-07
1.17606      	1.105661e-07
1.17709      	1.106133e-07
1.17811      	1.106674e-07
1.17914      	1.107293e-07
1.18016      	1.107916e-07
1.18119      	1.108529e-07
1.18222      	1.109134e-07
1.18325      	1.109583e-07
1.18427      	1.110037e-07
1.1853       	1.110496e-07
1.18633      	1.111055e-07
1.18736      	1.111413e-07
1.18838      	1.111737e-07
1.18941      	1.112144e-07
1.19044      	1.112492e-07
1.19147      	1.112805e-07
1.1925       	1.113112e-07
1.19352      	1.113536e-07
1.19455      	1.114169e-07
1.19558      	1.114712e-07
1.1966       	1.115113e-07
1.19763      	1.115444e-07
1.19866      	1.116012e-07
1.19968      	1.116598e-07
1.20071      	1.117149e-07
1.20174      	1.117549e-07
1.20277      	1.117941e-07
1.2038       	1.118186e-07
1.20483      	1.118606e-07
1.20586      	1.119167e-07
1.20689      	1.119583e-07
1.20791      	1.119870e-07
1.20894      	1.120205e-07
1.20997      	1.120188e-07