# Region type : patch bottom
# Faces  :   1000
# Area   :   6.239977e-01
# Time       	sum(phi)
0.0119048    	0.000000e+00
0.0136322    	1.753623e-22
0.0154387    	-1.902515e-23
0.0172354    	-2.378144e-24
0.0190255    	-1.499265e-23
0.0208123    	-9.822770e-25
0.0225927    	1.266620e-23
0.0243698    	5.686867e-24
0.0261436    	-1.504435e-23
0.0279143    	3.308722e-24
0.0296817    	2.132575e-24
0.0314459    	-1.305394e-23
0.0332101    	1.460491e-24
0.0349711    	-3.974344e-24
0.0367289    	4.846761e-25
0.0384867    	-5.156954e-24
0.0402413    	7.972923e-24
0.0419959    	-2.185889e-24
0.0437473    	-3.047805e-24
0.0454987    	1.419293e-24
0.0472468    	9.696754e-24
0.048995     	1.022020e-23
0.05074      	-3.336187e-24
0.0524849    	6.106919e-25
0.0542267    	-4.158521e-24
0.0559684    	3.101927e-24
0.057707     	1.706060e-24
0.0594423    	7.602953e-24
0.0611777    	5.208653e-24
0.0629098    	5.609319e-24
0.064642     	-5.450991e-24
0.0663709    	1.275021e-23
0.0680967    	-5.008320e-24
0.0698224    	4.639966e-24
0.071545     	3.767549e-24
0.0732675    	-2.811122e-24
0.0749869    	2.662488e-24
0.0767062    	1.181317e-23
0.0784224    	-3.735237e-24
0.0801385    	-1.201997e-24
0.0818547    	-3.909721e-24
0.0835677    	3.845097e-24
0.0852806    	2.798197e-24
0.0869904    	6.139231e-25
0.0887001    	1.512190e-24
0.0904099    	3.896796e-24
0.0921164    	1.008126e-24
0.093823     	2.035640e-24
0.0955295    	5.305588e-24
0.0972329    	-4.342698e-24
0.0989362    	5.273276e-24
0.100636     	-3.748162e-24
0.102336     	4.879073e-24
0.104033     	6.274940e-24
0.10573      	1.337706e-24
0.107424     	4.788600e-24
0.109118     	6.249091e-24
0.110808     	4.303924e-24
0.112499     	-7.877603e-24
0.114186     	-3.347497e-24
0.115873     	-1.137373e-24
0.117557     	-2.462155e-24
0.119238     	3.560754e-24
0.120919     	1.286007e-24
0.122596     	6.740230e-24
0.124274     	7.295991e-24
0.125949     	-3.412120e-24
0.127623     	-3.347497e-24
0.129297     	2.791735e-24
0.130969     	-6.384800e-24
0.13264      	9.128067e-24
0.134308     	-3.547829e-24
0.135976     	-5.670711e-24
0.137641     	-6.804853e-24
0.139305     	-1.279545e-24
0.140967     	7.302454e-25
0.142625     	-4.814450e-24
0.144284     	1.173886e-23
0.145939     	-5.686867e-25
0.147594     	-7.971307e-24
0.149246     	1.525114e-24
0.150898     	-9.044057e-24
0.152547     	1.040438e-24
0.154195     	-7.476937e-24
0.155841     	-3.599528e-24
0.157486     	2.908057e-24
0.159129     	4.400859e-24
0.160771     	1.684411e-23
0.16241      	2.455692e-25
0.164049     	5.541464e-24
0.165685     	5.767646e-25
0.167321     	1.070650e-23
0.168954     	1.197150e-24
0.170587     	-7.085965e-24
0.172219     	-2.528394e-24
0.173849     	-5.648093e-24
0.175478     	9.893856e-24
0.177105     	-1.245618e-24
0.178731     	1.024282e-24
0.180357     	7.216828e-24
0.18198      	2.011406e-24
0.183603     	-4.355623e-24
0.185226     	1.602662e-24
0.186846     	-5.577007e-24
0.188466     	-1.204420e-23
0.190086     	-5.921127e-24
0.191702     	4.935619e-24
0.193319     	-6.930869e-25
0.194936     	-1.180025e-23
0.196549     	-9.564276e-25
0.198162     	-3.426660e-24
0.199772     	1.421232e-23
0.201382     	-4.200527e-24
0.202993     	7.617493e-24
0.204603     	9.218540e-24
0.20621      	5.063250e-24
0.207816     	-2.707724e-24
0.209423     	3.966266e-24
0.211027     	9.077984e-24
0.212631     	-8.068242e-24
0.214234     	4.229607e-24
0.215838     	2.630176e-24
0.217438     	-3.145548e-24
0.219038     	-2.878976e-24
0.220639     	-1.240771e-24
0.222239     	-2.172157e-24
0.223839     	1.899930e-24
0.225436     	3.761087e-24
0.227033     	7.948689e-25
0.228631     	-8.796872e-24
0.230228     	3.076886e-24
0.231825     	-2.038871e-24
0.233422     	7.686964e-24
0.235019     	-2.355526e-24
0.236616     	-3.328109e-25
0.238213     	4.802333e-24
0.23981      	8.148214e-24
0.241407     	-5.992213e-24
0.243004     	-1.233824e-23
0.244601     	-1.213306e-24
0.246195     	1.222353e-23
0.247788     	-1.127034e-23
0.249382     	-1.138302e-23
0.250976     	1.224453e-23
0.252569     	7.056077e-25
0.254163     	3.196439e-24
0.255753     	6.359355e-24
0.257343     	-3.433123e-26
0.258934     	-2.158437e-24
0.260524     	-6.341987e-24
0.262114     	2.992875e-25
0.263705     	-5.309829e-24
0.265295     	2.956323e-24
0.266885     	-9.069098e-24
0.268475     	-1.257735e-24
0.270066     	1.060229e-23
0.271652     	1.097872e-23
0.273239     	5.169879e-26
0.274826     	7.157859e-24
0.276413     	-1.298932e-23
0.278        	4.715899e-24
0.279586     	-9.817923e-24
0.281173     	1.348207e-23
0.28276      	1.549348e-24
0.284347     	1.163223e-24
0.285934     	8.594924e-24
0.287517     	-5.806420e-24
0.289097     	1.176471e-23
0.290677     	1.539655e-24
0.292253     	8.572305e-24
0.293829     	5.460685e-25
0.295402     	-5.127874e-24
0.296975     	-1.964554e-24
0.298544     	-5.816114e-26
0.300113     	-1.395867e-24
0.301679     	-1.542886e-23
0.303241     	5.195728e-24
0.304796     	3.883871e-24
0.306348     	5.231271e-24
0.307897     	5.893662e-24
0.309441     	-3.793399e-24
0.310983     	1.072104e-23
0.312521     	-3.269948e-24
0.314052     	-1.712522e-24
0.31558      	6.921175e-24
0.317104     	6.391263e-24
0.318625     	-8.394591e-24
0.320142     	-3.063153e-24
0.321653     	-7.011648e-24
0.323161     	1.163223e-23
0.324661     	-3.282873e-24
0.326156     	1.563888e-24
0.327643     	3.877409e-26
0.329124     	-8.581999e-24
0.330599     	-2.765885e-24
0.332067     	2.235973e-24
0.333528     	-2.132575e-24
0.334983     	-8.323505e-24
0.336432     	-1.491510e-23
0.337875     	7.884065e-25
0.339311     	5.635168e-24
0.340741     	6.229704e-24
0.342165     	9.848619e-24
0.343586     	7.638496e-24
0.345        	1.137373e-23
0.346409     	3.567216e-24
0.347815     	5.247427e-24
0.349214     	1.021051e-23
0.350608     	-6.979336e-25
0.351998     	-3.877409e-25
0.353383     	3.101927e-25
0.354764     	-1.168393e-23
0.356143     	-5.971210e-24
0.357516     	-6.436499e-24
0.358886     	-3.179475e-24
0.360253     	1.354508e-23
0.361617     	-1.214922e-24
0.362978     	-6.669144e-24
0.364336     	8.349354e-24
0.365695     	-9.047288e-25
0.36705      	-1.861156e-24
0.368402     	-2.481542e-24
0.369755     	-1.809458e-24
0.371104     	2.584939e-24
0.372454     	1.835307e-23
0.373804     	-9.409179e-24
0.375153     	-8.168409e-24
0.376503     	9.305782e-25
0.377852     	-2.378144e-24
0.379199     	-2.171349e-24
0.380546     	-2.481542e-24
0.381889     	9.305782e-25
0.383233     	-8.116710e-24
0.384574     	-1.085675e-24
0.385915     	-6.307252e-24
0.387255     	-3.101927e-24
0.388596     	4.290999e-24
0.389937     	-1.602662e-24
0.391278     	-3.153626e-24
0.392619     	-4.342698e-24
0.393959     	-1.137373e-24
0.3953       	1.209752e-23
0.396641     	-2.584939e-24
0.397982     	8.065011e-24
0.399323     	2.481542e-24
0.400663     	-6.720842e-24
0.402004     	3.308722e-24
0.403345     	3.722313e-24
0.404686     	-1.033976e-25
0.40603      	-6.617445e-24
0.407373     	-1.757759e-24
0.40872      	-9.098987e-24
0.410067     	-9.305782e-24
0.411414     	9.719372e-24
0.412761     	-1.137373e-23
0.414108     	-1.354508e-23
0.415458     	5.376674e-24
0.416805     	8.271806e-24
0.418151     	6.720842e-24
0.419495     	-9.305782e-25
0.420839     	1.685380e-23
0.422183     	-2.688337e-24
0.423527     	7.134433e-24
0.42487      	-6.824240e-24
0.426214     	5.583469e-24
0.427558     	-7.031035e-24
0.428902     	2.274747e-24
0.430245     	2.895132e-24
0.431589     	1.654361e-24
0.432933     	6.203855e-24
0.434277     	-5.169879e-24
0.43562      	-8.271806e-24
0.436964     	-2.481542e-24
0.438308     	-2.067952e-25
0.439655     	-3.308722e-24
0.441002     	1.861156e-24
0.442349     	-2.481542e-24
0.443696     	2.274747e-24
0.445043     	2.067952e-24
0.446387     	4.342698e-24
0.44773      	-2.067952e-24
0.449077     	4.135903e-25
0.450424     	3.722313e-24
0.451771     	-7.858216e-24
0.453118     	1.261450e-23
0.454465     	1.633682e-23
0.455816     	-1.654361e-24
0.457166     	-4.135903e-24
0.45852      	-3.515518e-24
0.459873     	6.203855e-25
0.461227     	-6.824240e-24
0.462581     	-5.169879e-24
0.463938     	-5.376674e-24
0.465295     	4.135903e-24
0.466652     	1.654361e-24
0.468013     	-1.861156e-24
0.469373     	-6.203855e-25
0.470737     	-6.203855e-25
0.472101     	6.824240e-24
0.473465     	1.654361e-24
0.47483      	-7.237830e-24
0.476194     	4.549493e-24
0.477558     	-8.271806e-25
0.478922     	5.583469e-24
0.480286     	2.067952e-24
0.48165      	-2.895132e-24
0.483018     	4.135903e-24
0.484385     	6.824240e-24
0.485753     	-1.033976e-24
0.487121     	-8.271806e-25
0.488492     	1.033976e-23
0.489863     	-1.406207e-23
0.491235     	7.031035e-24
0.492606     	2.481542e-24
0.493981     	-1.861156e-24
0.495356     	-4.135903e-25
0.496735     	2.895132e-24
0.498114     	2.895132e-24
0.499493     	-3.722313e-24
0.500871     	-4.756289e-24
0.50225      	-5.997059e-24
0.503629     	4.135903e-25
0.505012     	-2.067952e-25
0.506394     	-1.240771e-24
0.507777     	-4.342698e-24
0.50916      	-1.654361e-24
0.510542     	2.067952e-24
0.511921     	3.515518e-24
0.513296     	-4.135903e-25
0.514671     	-5.376674e-24
0.516042     	2.067952e-25
0.517413     	2.895132e-24
0.51878      	-2.688337e-24
0.520143     	-4.135903e-24
0.521506     	-4.135903e-25
0.522869     	2.274747e-24
0.524229     	-3.308722e-24
0.525588     	1.240771e-24
0.526944     	-6.203855e-25
0.528299     	1.240771e-24
0.529655     	-1.033976e-24
0.53101      	-1.654361e-24
0.532362     	8.271806e-25
0.533713     	4.549493e-24
0.535065     	-2.688337e-24
0.536416     	4.135903e-25
0.537768     	-5.790264e-24
0.539119     	-2.688337e-24
0.540467     	3.515518e-24
0.541815     	3.101927e-24
0.543162     	2.998530e-24
0.544514     	-1.033976e-25
0.545865     	1.654361e-24
0.547217     	1.033976e-25
0.548569     	1.861156e-24
0.54992      	1.033976e-24
0.551272     	2.481542e-24
0.552623     	-1.654361e-24
0.553979     	2.895132e-24
0.555335     	-9.305782e-25
0.55669      	-8.271806e-25
0.55805      	-6.203855e-25
0.55941      	4.549493e-24
0.56077      	1.344168e-24
0.56213      	4.135903e-25
0.56349      	-1.033976e-24
0.564849     	7.237830e-25
0.566214     	-7.599722e-24
0.567578     	4.135903e-24
0.568942     	7.754818e-25
0.57031      	1.189072e-24
0.571679     	-1.189072e-24
0.573047     	1.395867e-24
0.57442      	-2.067952e-24
0.575793     	-5.118180e-24
0.57717      	-6.720842e-25
0.578547     	4.652891e-25
0.579925     	8.271806e-25
0.581302     	2.791735e-24
0.582684     	6.462349e-25
0.584066     	7.754818e-26
0.585447     	1.550964e-25
0.586829     	-2.300596e-24
0.588211     	2.584939e-25
0.589598     	-2.067952e-25
0.590984     	2.403994e-24
0.592371     	1.576813e-24
0.593757     	-2.326445e-25
0.595144     	-1.292470e-25
0.596535     	2.436305e-24
0.597926     	7.809748e-24
0.599317     	3.295798e-25
0.600709     	-2.804659e-24
0.602105     	3.334572e-24
0.603501     	3.295798e-24
0.604897     	-1.466953e-24
0.606298     	-7.367077e-25
0.607699     	3.890334e-24
0.609105     	-3.967882e-24
0.610511     	6.591596e-25
0.611917     	-2.584939e-25
0.613324     	5.945361e-25
0.614735     	-2.584939e-25
0.616146     	4.290999e-24
0.617557     	-2.507391e-24
0.618968     	7.496324e-25
0.62038      	8.530300e-25
0.621796     	2.197199e-24
0.623213     	-8.271806e-25
0.624629     	4.782138e-24
0.626046     	2.920982e-24
0.627462     	-2.481542e-24
0.628879     	2.067952e-24
0.630301     	-2.067952e-25
0.631723     	-3.722313e-24
0.633144     	-4.135903e-25
0.634566     	1.964554e-24
0.635994     	3.618915e-24
0.637421     	-1.861156e-24
0.638849     	-1.033976e-25
0.640282     	-8.271806e-25
0.641715     	9.822770e-25
0.643148     	2.895132e-24
0.644581     	1.861156e-24
0.64602      	7.237830e-25
0.647459     	2.688337e-24
0.648898     	1.550964e-24
0.650343     	4.135903e-25
0.651788     	-3.722313e-24
0.653233     	4.135903e-25
0.654678     	1.757759e-24
0.656122     	-7.237830e-25
0.657567     	-4.290999e-24
0.659018     	2.584939e-25
0.660469     	-2.740036e-24
0.66192      	5.169879e-25
0.663371     	-2.895132e-24
0.664822     	-3.489668e-24
0.66628      	-5.712716e-24
0.667737     	-3.050229e-24
0.669194     	-4.652891e-25
0.670651     	-1.964554e-24
0.672115     	-2.378144e-24
0.673579     	1.654361e-24
0.675043     	1.757759e-24
0.676507     	-2.067952e-25
0.677977     	-1.602662e-24
0.679447     	-1.654361e-24
0.680918     	3.515518e-24
0.682388     	9.822770e-25
0.683859     	1.344168e-24
0.685336     	1.706060e-24
0.686813     	-6.720842e-25
0.688291     	-4.652891e-25
0.689775     	-5.169879e-26
0.691259     	-3.101927e-25
0.692744     	-3.257024e-24
0.694228     	2.946831e-24
0.695712     	2.791735e-24
0.697197     	1.292470e-24
0.698681     	2.223048e-24
0.700173     	-2.171349e-24
0.701664     	3.101927e-25
0.703156     	1.266620e-24
0.704648     	5.118180e-24
0.706147     	1.447566e-24
0.707646     	9.305782e-25
0.709145     	-4.032505e-24
0.710645     	1.990403e-24
0.712144     	-3.618915e-25
0.713651     	-2.946831e-24
0.71515      	-1.318319e-24
0.716649     	1.240771e-24
0.718149     	5.169879e-25
0.71964      	1.809458e-25
0.721131     	2.507391e-24
0.722622     	2.972680e-25
0.724106     	2.830509e-24
0.725589     	-1.227846e-24
0.727072     	-4.639966e-24
0.728556     	1.977479e-24
0.730039     	-2.507391e-24
0.731514     	-1.021051e-24
0.732989     	-2.972680e-25
0.734465     	-3.748162e-24
0.73594      	-1.189072e-24
0.737415     	-3.657689e-24
0.738882     	1.870850e-24
0.740349     	-1.857925e-24
0.741816     	-2.234357e-24
0.743283     	5.047498e-24
0.744741     	-1.360324e-24
0.7462       	-1.878928e-24
0.747659     	-2.252128e-24
0.749117     	-2.765885e-24
0.750576     	7.470475e-24
0.752034     	-1.098599e-24
0.753493     	5.751490e-25
0.754943     	1.680211e-24
0.756393     	-3.618915e-24
0.757843     	9.047288e-25
0.759293     	-2.235973e-24
0.760743     	-5.040632e-24
0.762193     	-1.641437e-24
0.763643     	7.625571e-25
0.765093     	-8.659547e-25
0.766543     	-1.589738e-24
0.767993     	7.625571e-25
0.769444     	-2.171349e-24
0.770894     	-6.203855e-25
0.772344     	1.447566e-24
0.773794     	-2.584939e-24
0.775244     	4.135903e-25
0.776684     	3.308722e-24
0.778125     	9.305782e-25
0.779566     	9.047288e-25
0.781007     	-8.788794e-25
0.782447     	-9.047288e-25
0.783888     	1.809458e-25
0.785329     	1.008126e-24
0.78677      	-1.550964e-25
0.78821      	-2.843433e-25
0.789651     	-6.462349e-25
0.791092     	-3.101927e-25
0.792533     	5.169879e-25
0.793973     	-1.550964e-24
0.795414     	9.822770e-25
0.796855     	-6.720842e-25
0.798296     	-2.817584e-24
0.799736     	2.352295e-24
0.801177     	-4.911385e-25
0.802618     	3.437969e-24
0.804059     	-4.652891e-25
0.805489     	2.481542e-24
0.806919     	3.334572e-24
0.808349     	8.788794e-25
0.80978      	6.979336e-25
0.81121      	3.360421e-24
0.81264      	-2.584939e-25
0.81407      	1.499265e-24
0.8155       	5.169879e-25
0.816931     	-1.912855e-24
0.818361     	-3.980807e-24
0.819791     	-1.602662e-24
0.821221     	-2.946831e-24
0.822652     	-6.720842e-25
0.824082     	-1.861156e-24
0.825512     	-9.822770e-25
0.826942     	1.602662e-24
0.828361     	-2.067952e-25
0.829779     	-4.135903e-25
0.831198     	2.274747e-24
0.832616     	-1.654361e-24
0.834035     	5.118180e-24
0.835453     	9.564276e-25
0.836872     	3.179475e-24
0.83829      	3.257024e-24
0.839709     	-4.006656e-24
0.841127     	2.869283e-24
0.842546     	9.305782e-25
0.843964     	-4.497795e-24
0.845383     	1.602662e-24
0.846788     	-3.334572e-24
0.848194     	2.300596e-24
0.8496       	-1.240771e-24
0.851005     	3.205325e-24
0.852411     	-5.066481e-24
0.853817     	-1.628512e-24
0.855222     	-2.326445e-25
0.856628     	-5.893662e-24
0.858033     	-1.163223e-24
0.859425     	2.998530e-24
0.860817     	-1.731909e-24
0.862209     	8.659547e-25
0.863601     	-6.423574e-24
0.864992     	-1.021051e-24
0.866384     	3.269948e-24
0.867776     	6.850089e-25
0.869168     	-8.530300e-25
0.87056      	-4.097129e-24
0.871952     	-1.350631e-24
0.873343     	1.092137e-24
0.874735     	1.014589e-24
0.876127     	-1.260158e-24
0.877519     	-1.481493e-24
0.878911     	2.673797e-25
0.880303     	-3.462203e-24
0.881694     	1.376480e-24
0.883086     	-2.552628e-25
0.884478     	-3.179475e-24
0.88587      	-3.353959e-24
0.887262     	3.444432e-24
0.888637     	2.197199e-25
0.890011     	-3.748162e-24
0.891386     	-2.572015e-24
0.892761     	6.307252e-24
0.894136     	3.812786e-24
0.895511     	4.562418e-24
0.896886     	-3.877409e-24
0.898261     	-2.714186e-24
0.899635     	-3.851560e-24
0.90101      	1.370018e-24
0.902385     	3.101927e-25
0.90376      	3.954957e-24
0.905135     	-4.627042e-24
0.90651      	-1.395867e-24
0.907885     	1.189072e-24
0.909259     	1.473415e-24
0.910634     	-5.402523e-24
0.912009     	-2.352295e-24
0.913384     	7.754818e-25
0.914759     	-1.214922e-24
0.916134     	-1.550964e-25
0.917509     	1.550964e-25
0.918883     	3.282873e-24
0.920258     	-8.788794e-25
0.921633     	-4.084204e-24
0.923008     	1.964554e-24
0.924383     	2.378144e-24
0.925758     	1.033976e-24
0.927133     	-3.205325e-24
0.928507     	-1.033976e-24
0.929882     	-4.704590e-24
0.931257     	-1.447566e-24
0.932632     	3.205325e-24
0.934007     	-3.153626e-24
0.935382     	-8.271806e-25
0.936757     	0.000000e+00
0.938131     	-3.257024e-24
0.939506     	-5.376674e-24
0.940881     	-3.825710e-24
0.942256     	-3.050229e-24
0.943631     	1.033976e-25
0.945006     	-3.257024e-24
0.946381     	-2.248897e-24
0.947755     	-6.720842e-25
0.94913      	-5.635168e-24
0.950505     	-4.446096e-24
0.95188      	-4.394397e-25
0.953255     	-5.169879e-26
0.95463      	5.428373e-25
0.956005     	-4.058355e-24
0.957379     	-7.754818e-26
0.958754     	-2.145500e-24
0.960129     	-3.412120e-24
0.961504     	3.541367e-24
0.962879     	-1.525114e-24
0.964254     	-2.145500e-24
0.965629     	4.807987e-24
0.967003     	-1.318319e-24
0.968378     	2.946831e-24
0.969753     	1.163223e-24
0.971128     	-1.447566e-24
0.972503     	-7.237830e-25
0.973878     	4.911385e-25
0.975253     	2.998530e-24
0.976627     	3.024379e-24
0.978002     	3.231174e-25
0.979377     	2.391069e-24
0.980752     	-3.437969e-24
0.982127     	1.783608e-24
0.983502     	-2.261822e-24
0.984877     	2.391069e-24
0.986251     	0.000000e+00
0.987626     	1.576813e-24
0.989001     	3.748162e-25
0.990376     	4.782138e-25
0.991751     	-5.337900e-24
0.993126     	8.530300e-25
0.994501     	1.279545e-24
0.995875     	-2.494467e-24
0.99725      	1.744834e-24
0.998625     	1.447566e-24
1            	4.006656e-25
1.00141      	-2.972680e-25
1.00281      	1.124449e-24
1.00421      	-1.008126e-24
1.00562      	2.752960e-24
1.00702      	-5.040632e-25
1.00842      	-1.318319e-24
1.00982      	-1.822382e-24
1.01123      	-7.754818e-26
1.01263      	-2.378144e-24
1.01403      	-1.046900e-24
1.01544      	-2.985605e-24
1.01685      	-3.618915e-25
1.01826      	-2.481542e-24
1.01967      	2.442768e-24
1.02108      	-3.179475e-24
1.0225       	-4.743364e-24
1.02392      	8.271806e-25
1.02533      	2.584939e-24
1.02675      	-2.714186e-25
1.02817      	-1.124449e-24
1.02959      	1.137373e-24
1.031        	8.918041e-25
1.03242      	-8.271806e-25
1.03384      	-5.040632e-25
1.03527      	-6.462349e-25
1.03669      	-6.281403e-24
1.03812      	2.817584e-24
1.03955      	2.223048e-24
1.04098      	1.266620e-24
1.04241      	9.693523e-25
1.04385      	-1.731909e-24
1.04529      	1.861156e-24
1.04673      	-1.473415e-24
1.04817      	-1.861156e-24
1.04962      	-1.706060e-24
1.05106      	2.740036e-24
1.05252      	-1.964554e-24
1.05397      	6.462349e-25
1.05543      	1.525114e-24
1.05689      	-4.652891e-25
1.05836      	-6.203855e-25
1.05982      	-2.248897e-24
1.0613       	2.740036e-24
1.06277      	7.237830e-25
1.06425      	2.326445e-25
1.06574      	6.203855e-25
1.06723      	2.843433e-24
1.06872      	2.662488e-24
1.07022      	-1.008126e-24
1.07173      	2.378144e-24
1.07324      	1.731909e-24
1.07475      	3.360421e-25
1.07626      	-3.437969e-24
1.07777      	5.945361e-25
1.07928      	1.085675e-24
1.08078      	-3.360421e-24
1.08229      	3.153626e-24
1.08381      	1.576813e-24
1.08532      	-1.189072e-24
1.08683      	-4.652891e-25
1.08834      	-6.720842e-25
1.08985      	2.067952e-25
1.09136      	-3.050229e-24
1.09287      	1.059825e-24
1.09439      	-1.189072e-24
1.0959       	7.237830e-25
1.09742      	8.013312e-25
1.09894      	-2.429843e-24
1.10045      	-2.843433e-24
1.10197      	-2.843433e-25
1.10349      	-3.179475e-24
1.10501      	2.042102e-24
1.10654      	-1.395867e-24
1.10806      	-3.101927e-25
1.10958      	-2.067952e-24
1.1111       	-1.085675e-24
1.11263      	2.817584e-24
1.11416      	-4.187602e-24
1.11568      	-3.605990e-24
1.11721      	-1.499265e-24
1.11875      	3.282873e-24
1.12028      	3.166551e-24
1.12182      	-2.274747e-24
1.12335      	-3.877409e-25
1.12489      	-1.447566e-24
1.12643      	-1.240771e-24
1.12797      	2.093801e-24
1.12951      	2.882207e-24
1.13106      	-1.292470e-24
1.1326       	1.085675e-24
1.13415      	1.538039e-24
1.13569      	4.575343e-24
1.13724      	-1.046900e-24
1.13879      	1.421717e-25
1.14034      	2.468617e-24
1.14189      	3.722313e-24
1.14344      	-2.675412e-24
1.145        	1.421717e-24
1.14655      	-1.757759e-24
1.14811      	9.564276e-25
1.14967      	1.421717e-25
1.15123      	-1.279545e-24
1.15279      	-1.370018e-24
1.15435      	-3.722313e-24
1.15592      	-6.462349e-25
1.15748      	2.662488e-24
1.15905      	8.530300e-25
1.16062      	-3.192400e-24
1.16218      	4.135903e-24
1.16375      	2.365220e-24
1.16533      	-1.938705e-25
1.1669       	-4.045430e-24
1.16847      	3.554292e-24
1.17005      	-2.584939e-25
1.17162      	-2.416918e-24
1.1732       	-4.045430e-24
1.17478      	-1.008126e-24
1.17636      	-2.688337e-24
1.17794      	1.550964e-25
1.17951      	-1.008126e-24
1.18109      	4.006656e-25
1.18267      	1.033976e-24
1.18425      	1.538039e-24
1.18583      	-2.701262e-24
1.18741      	-2.507391e-24
1.18899      	1.033976e-24
1.19057      	4.820912e-24
1.19215      	-2.378144e-24
1.19374      	2.210123e-24
1.19532      	7.754818e-26
1.1969       	-5.144029e-24
1.19849      	3.231174e-24
1.20008      	-5.945361e-25
1.20167      	-7.948689e-24
1.20325      	-1.344168e-24
1.20484      	4.303924e-24
1.20643      	8.142559e-25
1.20801      	4.006656e-24
1.2096       	-8.788794e-25
1.21119      	-1.085675e-24
1.21278      	4.575343e-24
1.21436      	-8.271806e-25
1.21595      	-1.292470e-25
1.21753      	2.067952e-25
1.21911      	3.282873e-24
1.22068      	1.370018e-24
1.22225      	1.861156e-24
1.22382      	-3.954957e-24
1.22539      	6.979336e-25
1.22695      	2.869283e-24
1.22851      	-2.559090e-24
1.23008      	-3.463819e-24
1.23163      	-3.463819e-24
1.23319      	3.437969e-24
1.23475      	-5.376674e-24
1.2363       	3.127777e-24
1.23786      	4.859686e-24
1.23941      	3.877409e-24
1.24096      	1.809458e-24
1.24251      	9.047288e-25
1.24406      	6.462349e-25
1.24561      	1.033976e-24
1.24716      	-2.067952e-24
1.24871      	1.602662e-24
1.25026      	-2.455692e-24
1.25181      	1.602662e-24
1.25336      	1.370018e-24
1.2549       	-4.239301e-24
1.25645      	-5.014782e-24
1.25801      	3.618915e-24
1.25956      	-3.360421e-25
1.26111      	-3.825710e-24
1.26266      	6.462349e-24
1.26422      	1.344168e-24
1.26577      	7.496324e-25
1.26733      	5.764415e-24
1.26888      	-7.005186e-24
1.27044      	2.171349e-24
1.272        	-2.584939e-24
1.27355      	5.505921e-24
1.27511      	-2.740036e-24
1.27667      	-3.334572e-24
1.27823      	6.203855e-25
1.27979      	2.145500e-24
1.28135      	-1.266620e-24
1.28291      	-5.169879e-25
1.28447      	2.895132e-24
1.28604      	3.024379e-24
1.2876       	-6.720842e-25
1.28916      	4.394397e-24
1.29073      	3.618915e-24
1.2923       	-5.040632e-24
1.29386      	1.111524e-24
1.29543      	3.903259e-24
1.29699      	2.171349e-24
1.29856      	3.748162e-24
1.30013      	-5.195728e-24
1.3017       	6.462349e-24
1.30327      	3.437969e-24
1.30484      	4.497795e-24
1.30641      	8.375204e-24
1.30798      	5.428373e-25
1.30955      	-8.737095e-24
1.31112      	-1.059825e-24
1.31269      	-6.462349e-25
1.31425      	-1.059825e-24
1.31582      	5.428373e-24
1.31739      	-8.607848e-24
1.31896      	5.350825e-24
1.32053      	5.169879e-25
1.3221       	-3.463819e-24
1.32367      	-3.463819e-24
1.32524      	1.576813e-24
1.32681      	7.754818e-25
1.32838      	1.525114e-24
1.32995      	-2.843433e-25
1.33151      	7.548023e-24
1.33308      	-1.059825e-24
1.33464      	-2.300596e-24
1.33621      	-3.437969e-24
1.33777      	6.203855e-25
1.33934      	-5.505921e-24
1.34091      	-5.661017e-24
1.34247      	2.662488e-24
1.34403      	4.833837e-24
1.34558      	1.059825e-24
1.34712      	-7.237830e-25
1.34867      	2.067952e-25
1.35021      	2.533241e-24
1.35174      	4.394397e-25
1.35327      	-4.316849e-24
1.35479      	4.135903e-25
1.35631      	1.757759e-24
1.35783      	4.213451e-24
1.35935      	-6.901788e-24
1.36086      	-3.644765e-24
1.36237      	-3.050229e-24
1.36387      	2.274747e-24
1.36537      	-1.809458e-25
1.36687      	-1.835307e-24
1.36836      	5.661017e-24
1.36986      	-2.559090e-24
1.37135      	2.326445e-24
1.37284      	7.496324e-25
1.37432      	-6.462349e-24
1.37581      	-5.583469e-24
1.37729      	-1.731909e-24
1.37878      	2.584939e-26
1.38026      	-4.730439e-24
1.38174      	1.576813e-24
1.38322      	-4.911385e-25
1.38469      	1.912855e-24
1.38617      	5.686867e-24
1.38764      	2.817584e-24
1.38911      	2.067952e-24
1.39058      	1.783608e-24
1.39205      	8.401053e-24
1.39352      	2.662488e-24
1.39499      	-2.455692e-24
1.39646      	3.954957e-24
1.39792      	-4.652891e-24
1.39939      	7.418776e-24
1.40086      	-2.946831e-24
1.40233      	4.627042e-24
1.40381      	-3.360421e-25
1.40528      	-2.843433e-24
1.40675      	8.788794e-25
1.40822      	-2.688337e-24
1.40969      	-3.257024e-24
1.41117      	1.757759e-24
1.41263      	0.000000e+00
1.4141       	2.636638e-24
1.41557      	-1.887006e-24
1.41704      	-3.153626e-24
1.41851      	3.257024e-24
1.41998      	4.652891e-25
1.42144      	4.549493e-24
1.42292      	1.706060e-24
1.42439      	-3.257024e-24
1.42586      	7.548023e-24
1.42733      	-4.161752e-24
1.42881      	2.740036e-24
1.43028      	5.480072e-24
1.43175      	-1.550964e-25
1.43322      	2.403994e-24
1.43469      	1.912855e-24
1.43617      	-2.817584e-24
1.43765      	2.869283e-24
1.43913      	-4.032505e-24
1.44061      	-6.203855e-25
1.44209      	1.085675e-24
1.44357      	-6.462349e-25
1.44505      	-1.835307e-24
1.44653      	-1.835307e-24
1.44801      	-4.937234e-24
1.4495       	2.714186e-24
1.45098      	-1.137373e-24
1.45246      	-3.670614e-24
1.45395      	5.376674e-24
1.45544      	1.033976e-25
1.45692      	2.507391e-24
1.45842      	1.240771e-24
1.45991      	1.809458e-24
1.4614       	-5.919511e-24
1.46289      	-2.093801e-24
1.46438      	4.110054e-24
1.46588      	6.255553e-24
1.46737      	7.754818e-26
1.46887      	-6.979336e-25
1.47037      	9.822770e-25
1.47187      	2.972680e-24
1.47337      	-8.788794e-25
1.47488      	-3.257024e-24
1.47639      	-4.368548e-24
1.4779       	-3.799861e-24
1.47941      	2.688337e-24
1.48092      	-6.255553e-24
1.48243      	-3.360421e-25
1.48395      	-8.866342e-24
1.48546      	1.370018e-24
1.48697      	-7.884065e-24
1.48849      	1.163223e-24
1.49001      	6.720842e-24
1.49153      	-7.548023e-24
1.49305      	4.704590e-24
1.49458      	1.550964e-25
1.49611      	3.567216e-24
1.49763      	3.618915e-25
1.49916      	2.740036e-24
1.50069      	-2.740036e-24
1.50221      	5.738565e-24
1.50374      	-3.205325e-24
1.50527      	-3.670614e-24
1.5068       	2.223048e-24
1.50834      	-3.567216e-24
1.50987      	-1.189072e-24
1.51141      	-4.032505e-24
1.51295      	-3.050229e-24
1.51448      	1.499265e-24
1.51602      	2.688337e-24
1.51756      	-7.754818e-25
1.51911      	-6.669144e-24
1.52065      	1.861156e-24
1.52219      	2.584939e-25
1.52374      	8.271806e-25
1.52529      	3.929108e-24
1.52684      	-1.344168e-24
1.52839      	-1.499265e-24
1.52995      	-5.686867e-24
1.53151      	-3.101927e-25
1.53306      	-2.636638e-24
1.53462      	-5.169879e-25
1.53619      	5.014782e-24
1.53775      	8.995589e-24
1.53932      	-2.067952e-25
1.54088      	-2.481542e-24
1.54245      	-7.806517e-24
1.54402      	-5.169879e-26
1.54559      	-5.169879e-24
1.54717      	-2.584939e-25
1.54874      	3.618915e-25
1.55031      	-1.033976e-24
1.55188      	-7.237830e-25
1.55346      	-5.169879e-26
1.55504      	-3.101927e-24
1.55662      	-4.187602e-24
1.5582       	-5.376674e-24
1.55978      	-2.688337e-24
1.56137      	2.946831e-24
1.56295      	1.292470e-24
1.56453      	-3.618915e-24
1.56612      	-4.859686e-24
1.56771      	3.980807e-24
1.5693       	-1.912855e-24
1.57089      	-1.189072e-24
1.57247      	-6.720842e-25
1.57406      	5.635168e-24
1.57565      	6.772541e-24
1.57724      	-3.050229e-24
1.57883      	1.447566e-24
1.58042      	-6.927638e-24
1.58201      	-2.584939e-24
1.5836       	5.945361e-24
1.58519      	-1.189072e-24
1.58678      	1.654361e-24
1.58837      	-4.652891e-25
1.58996      	-2.067952e-25
1.59156      	7.237830e-25
1.59315      	1.189072e-24
1.59474      	-6.927638e-24
1.59633      	-5.480072e-24
1.59792      	3.515518e-24
1.59951      	3.205325e-24
1.60109      	-2.584939e-24
1.60268      	-4.652891e-25
1.60427      	-2.429843e-24
1.60586      	-2.429843e-24
1.60745      	-3.205325e-24
1.60905      	1.912855e-24
1.61064      	5.169879e-26
1.61224      	-5.169879e-24
1.61383      	5.169879e-26
1.61543      	-1.550964e-24
1.61703      	2.584939e-24
1.61862      	1.033976e-25
1.62022      	-5.686867e-25
1.62181      	-4.032505e-24
1.62341      	-3.618915e-25
1.625        	5.169879e-25
1.62661      	4.704590e-24
1.62821      	-5.066481e-24
1.62981      	4.859686e-24
1.63141      	-3.877409e-24