# Region type : patch bottom
# Faces  :   120
# Area   :   1.257186e-02
# Time       	sumDirection(advectiveCFluxSurf)
1            	7.023422e-08
2            	7.044276e-08
3            	7.052280e-08
4            	7.054483e-08
5            	7.054204e-08
6            	7.052572e-08
7            	7.050431e-08
