/*--------------------------------*- C++ -*----------------------------------*\
| =========                 |                                                 |
| \\      /  F ield         | OpenFOAM: The Open Source CFD Toolbox           |
|  \\    /   O peration     | Version:  5.x                                   |
|   \\  /    A nd           | Web:      www.OpenFOAM.org                      |
|    \\/     M anipulation  |                                                 |
\*---------------------------------------------------------------------------*/
FoamFile
{
    version     2.0;
    format      ascii;
    class       surfaceScalarField;
    location    "300/surface";
    object      advectiveCFluxSurf;
}
// * * * * * * * * * * * * * * * * * * * * * * * * * * * * * * * * * * * * * //

dimensions      [0 3 -1 0 0 0 0];

internalField   nonuniform List<scalar> 
14220
(
1.98447e-06
-1.64424e-06
1.97748e-06
-1.64424e-06
1.97049e-06
-1.64424e-06
1.9635e-06
-1.64424e-06
1.9565e-06
-1.64424e-06
1.94951e-06
-1.64424e-06
1.94252e-06
-1.64424e-06
1.93552e-06
-1.64424e-06
1.92853e-06
-1.64424e-06
1.92154e-06
-1.64424e-06
1.91455e-06
-1.64424e-06
1.90755e-06
-1.64424e-06
1.90056e-06
-1.64424e-06
1.89357e-06
-1.64424e-06
1.88658e-06
-1.64424e-06
1.87958e-06
-1.64424e-06
1.87259e-06
-1.64424e-06
1.8656e-06
-1.64424e-06
1.85861e-06
-1.64424e-06
1.85161e-06
-1.64424e-06
1.84462e-06
-1.64424e-06
1.83763e-06
-1.64424e-06
1.83064e-06
-1.64424e-06
1.82364e-06
-1.64424e-06
1.81665e-06
-1.64424e-06
1.80966e-06
-1.64424e-06
1.80267e-06
-1.64424e-06
1.79567e-06
-1.64424e-06
1.78868e-06
-1.64424e-06
1.78169e-06
-1.64424e-06
1.77469e-06
-1.64424e-06
1.7677e-06
-1.64424e-06
1.76071e-06
-1.64424e-06
1.75372e-06
-1.64424e-06
1.74672e-06
-1.64424e-06
1.73973e-06
-1.64424e-06
1.73274e-06
-1.64424e-06
1.72575e-06
-1.64424e-06
1.71875e-06
-1.64424e-06
1.71176e-06
-1.64424e-06
1.70477e-06
-1.64424e-06
1.69778e-06
-1.64424e-06
1.69078e-06
-1.64424e-06
1.68379e-06
-1.64424e-06
1.6768e-06
-1.64424e-06
1.66981e-06
-1.64424e-06
1.68234e-06
2.94814e-06
1.70612e-06
5.59131e-06
1.7299e-06
5.59131e-06
1.75368e-06
5.59131e-06
1.77746e-06
5.59131e-06
1.80124e-06
5.59131e-06
1.82502e-06
5.59131e-06
1.84879e-06
5.59131e-06
1.87257e-06
5.59131e-06
1.89635e-06
5.59131e-06
1.92013e-06
5.59131e-06
1.94391e-06
5.59131e-06
1.96769e-06
5.59131e-06
1.99147e-06
5.59131e-06
1.98447e-06
-1.64424e-06
1.97748e-06
-1.64424e-06
1.97049e-06
-1.64424e-06
1.9635e-06
-1.64424e-06
1.9565e-06
-1.64424e-06
1.94951e-06
-1.64424e-06
1.94252e-06
-1.64424e-06
1.93552e-06
-1.64424e-06
1.92853e-06
-1.64424e-06
1.92154e-06
-1.64424e-06
1.91455e-06
-1.64424e-06
1.90755e-06
-1.64424e-06
1.90056e-06
-1.64424e-06
1.89357e-06
-1.64424e-06
1.88658e-06
-1.64424e-06
1.87958e-06
-1.64424e-06
1.87259e-06
-1.64424e-06
1.8656e-06
-1.64424e-06
1.85861e-06
-1.64424e-06
1.85161e-06
-1.64424e-06
1.84462e-06
-1.64424e-06
1.83763e-06
-1.64424e-06
1.83064e-06
-1.64424e-06
1.82364e-06
-1.64424e-06
1.81665e-06
-1.64424e-06
1.80966e-06
-1.64424e-06
1.80267e-06
-1.64424e-06
1.79567e-06
-1.64424e-06
1.78868e-06
-1.64424e-06
1.78169e-06
-1.64424e-06
1.77469e-06
-1.64424e-06
1.7677e-06
-1.64424e-06
1.76071e-06
-1.64424e-06
1.75372e-06
-1.64424e-06
1.74672e-06
-1.64424e-06
1.73973e-06
-1.64424e-06
1.73274e-06
-1.64424e-06
1.72575e-06
-1.64424e-06
1.71875e-06
-1.64424e-06
1.71176e-06
-1.64424e-06
1.70477e-06
-1.64424e-06
1.69778e-06
-1.64424e-06
1.69078e-06
-1.64424e-06
1.68379e-06
-1.64424e-06
1.6768e-06
-1.64424e-06
1.66981e-06
-1.64424e-06
1.68234e-06
2.94814e-06
1.70612e-06
5.59131e-06
1.7299e-06
5.59131e-06
1.75368e-06
5.59131e-06
1.77746e-06
5.59131e-06
1.80124e-06
5.59131e-06
1.82502e-06
5.59131e-06
1.84879e-06
5.59131e-06
1.87257e-06
5.59131e-06
1.89635e-06
5.59131e-06
1.92013e-06
5.59131e-06
1.94391e-06
5.59131e-06
1.96769e-06
5.59131e-06
5.59131e-06
2.06345e-06
-1.63697e-06
2.05618e-06
-1.63697e-06
2.04891e-06
-1.63697e-06
2.04164e-06
-1.63697e-06
2.03437e-06
-1.63697e-06
2.0271e-06
-1.63697e-06
2.01983e-06
-1.63697e-06
2.01256e-06
-1.63697e-06
2.00528e-06
-1.63697e-06
1.99801e-06
-1.63697e-06
1.99074e-06
-1.63697e-06
1.98347e-06
-1.63697e-06
1.9762e-06
-1.63697e-06
1.96893e-06
-1.63697e-06
1.96166e-06
-1.63697e-06
1.95439e-06
-1.63697e-06
1.94712e-06
-1.63697e-06
1.93985e-06
-1.63697e-06
1.93258e-06
-1.63697e-06
1.9253e-06
-1.63697e-06
1.91803e-06
-1.63697e-06
1.91076e-06
-1.63697e-06
1.90349e-06
-1.63697e-06
1.89622e-06
-1.63697e-06
1.88895e-06
-1.63697e-06
1.88168e-06
-1.63697e-06
1.87441e-06
-1.63697e-06
1.86714e-06
-1.63697e-06
1.85987e-06
-1.63697e-06
1.8526e-06
-1.63697e-06
1.84532e-06
-1.63697e-06
1.83805e-06
-1.63697e-06
1.83078e-06
-1.63697e-06
1.82351e-06
-1.63697e-06
1.81624e-06
-1.63697e-06
1.80897e-06
-1.63697e-06
1.8017e-06
-1.63697e-06
1.79443e-06
-1.63697e-06
1.78716e-06
-1.63697e-06
1.77989e-06
-1.63697e-06
1.77262e-06
-1.63697e-06
1.76534e-06
-1.63697e-06
1.75807e-06
-1.63697e-06
1.7508e-06
-1.63697e-06
1.74353e-06
-1.63697e-06
1.73626e-06
-1.63697e-06
1.7493e-06
2.9351e-06
1.77402e-06
5.56658e-06
1.79875e-06
5.56658e-06
1.82347e-06
5.56658e-06
1.8482e-06
5.56658e-06
1.87292e-06
5.56658e-06
1.89765e-06
5.56658e-06
1.92237e-06
5.56658e-06
1.9471e-06
5.56658e-06
1.97182e-06
5.56658e-06
1.99655e-06
5.56658e-06
2.02127e-06
5.56658e-06
2.046e-06
5.56658e-06
2.07072e-06
5.56658e-06
2.06345e-06
-1.63697e-06
2.05618e-06
-1.63697e-06
2.04891e-06
-1.63697e-06
2.04164e-06
-1.63697e-06
2.03437e-06
-1.63697e-06
2.0271e-06
-1.63697e-06
2.01983e-06
-1.63697e-06
2.01256e-06
-1.63697e-06
2.00528e-06
-1.63697e-06
1.99801e-06
-1.63697e-06
1.99074e-06
-1.63697e-06
1.98347e-06
-1.63697e-06
1.9762e-06
-1.63697e-06
1.96893e-06
-1.63697e-06
1.96166e-06
-1.63697e-06
1.95439e-06
-1.63697e-06
1.94712e-06
-1.63697e-06
1.93985e-06
-1.63697e-06
1.93258e-06
-1.63697e-06
1.9253e-06
-1.63697e-06
1.91803e-06
-1.63697e-06
1.91076e-06
-1.63697e-06
1.90349e-06
-1.63697e-06
1.89622e-06
-1.63697e-06
1.88895e-06
-1.63697e-06
1.88168e-06
-1.63697e-06
1.87441e-06
-1.63697e-06
1.86714e-06
-1.63697e-06
1.85987e-06
-1.63697e-06
1.8526e-06
-1.63697e-06
1.84532e-06
-1.63697e-06
1.83805e-06
-1.63697e-06
1.83078e-06
-1.63697e-06
1.82351e-06
-1.63697e-06
1.81624e-06
-1.63697e-06
1.80897e-06
-1.63697e-06
1.8017e-06
-1.63697e-06
1.79443e-06
-1.63697e-06
1.78716e-06
-1.63697e-06
1.77989e-06
-1.63697e-06
1.77262e-06
-1.63697e-06
1.76534e-06
-1.63697e-06
1.75807e-06
-1.63697e-06
1.7508e-06
-1.63697e-06
1.74353e-06
-1.63697e-06
1.73626e-06
-1.63697e-06
1.7493e-06
2.9351e-06
1.77402e-06
5.56658e-06
1.79875e-06
5.56658e-06
1.82347e-06
5.56658e-06
1.8482e-06
5.56658e-06
1.87292e-06
5.56658e-06
1.89765e-06
5.56658e-06
1.92237e-06
5.56658e-06
1.9471e-06
5.56658e-06
1.97182e-06
5.56658e-06
1.99655e-06
5.56658e-06
2.02127e-06
5.56658e-06
2.046e-06
5.56658e-06
5.56658e-06
2.14557e-06
-1.62941e-06
2.13801e-06
-1.62941e-06
2.13045e-06
-1.62941e-06
2.12289e-06
-1.62941e-06
2.11533e-06
-1.62941e-06
2.10777e-06
-1.62941e-06
2.10021e-06
-1.62941e-06
2.09265e-06
-1.62941e-06
2.08509e-06
-1.62941e-06
2.07753e-06
-1.62941e-06
2.06997e-06
-1.62941e-06
2.06241e-06
-1.62941e-06
2.05485e-06
-1.62941e-06
2.04729e-06
-1.62941e-06
2.03973e-06
-1.62941e-06
2.03217e-06
-1.62941e-06
2.02461e-06
-1.62941e-06
2.01705e-06
-1.62941e-06
2.00949e-06
-1.62941e-06
2.00193e-06
-1.62941e-06
1.99437e-06
-1.62941e-06
1.98681e-06
-1.62941e-06
1.97925e-06
-1.62941e-06
1.97169e-06
-1.62941e-06
1.96413e-06
-1.62941e-06
1.95657e-06
-1.62941e-06
1.94901e-06
-1.62941e-06
1.94145e-06
-1.62941e-06
1.93389e-06
-1.62941e-06
1.92633e-06
-1.62941e-06
1.91877e-06
-1.62941e-06
1.91121e-06
-1.62941e-06
1.90364e-06
-1.62941e-06
1.89608e-06
-1.62941e-06
1.88852e-06
-1.62941e-06
1.88096e-06
-1.62941e-06
1.8734e-06
-1.62941e-06
1.86584e-06
-1.62941e-06
1.85828e-06
-1.62941e-06
1.85072e-06
-1.62941e-06
1.84316e-06
-1.62941e-06
1.8356e-06
-1.62941e-06
1.82804e-06
-1.62941e-06
1.82048e-06
-1.62941e-06
1.81292e-06
-1.62941e-06
1.80536e-06
-1.62941e-06
1.81892e-06
2.92155e-06
1.84463e-06
5.54087e-06
1.87033e-06
5.54087e-06
1.89604e-06
5.54087e-06
1.92175e-06
5.54087e-06
1.94746e-06
5.54087e-06
1.97317e-06
5.54087e-06
1.99888e-06
5.54087e-06
2.02459e-06
5.54087e-06
2.0503e-06
5.54087e-06
2.07601e-06
5.54087e-06
2.10172e-06
5.54087e-06
2.12743e-06
5.54087e-06
2.15313e-06
5.54087e-06
2.14557e-06
-1.62941e-06
2.13801e-06
-1.62941e-06
2.13045e-06
-1.62941e-06
2.12289e-06
-1.62941e-06
2.11533e-06
-1.62941e-06
2.10777e-06
-1.62941e-06
2.10021e-06
-1.62941e-06
2.09265e-06
-1.62941e-06
2.08509e-06
-1.62941e-06
2.07753e-06
-1.62941e-06
2.06997e-06
-1.62941e-06
2.06241e-06
-1.62941e-06
2.05485e-06
-1.62941e-06
2.04729e-06
-1.62941e-06
2.03973e-06
-1.62941e-06
2.03217e-06
-1.62941e-06
2.02461e-06
-1.62941e-06
2.01705e-06
-1.62941e-06
2.00949e-06
-1.62941e-06
2.00193e-06
-1.62941e-06
1.99437e-06
-1.62941e-06
1.98681e-06
-1.62941e-06
1.97925e-06
-1.62941e-06
1.97169e-06
-1.62941e-06
1.96413e-06
-1.62941e-06
1.95657e-06
-1.62941e-06
1.94901e-06
-1.62941e-06
1.94145e-06
-1.62941e-06
1.93389e-06
-1.62941e-06
1.92633e-06
-1.62941e-06
1.91877e-06
-1.62941e-06
1.91121e-06
-1.62941e-06
1.90364e-06
-1.62941e-06
1.89608e-06
-1.62941e-06
1.88852e-06
-1.62941e-06
1.88096e-06
-1.62941e-06
1.8734e-06
-1.62941e-06
1.86584e-06
-1.62941e-06
1.85828e-06
-1.62941e-06
1.85072e-06
-1.62941e-06
1.84316e-06
-1.62941e-06
1.8356e-06
-1.62941e-06
1.82804e-06
-1.62941e-06
1.82048e-06
-1.62941e-06
1.81292e-06
-1.62941e-06
1.80536e-06
-1.62941e-06
1.81892e-06
2.92155e-06
1.84463e-06
5.54087e-06
1.87033e-06
5.54087e-06
1.89604e-06
5.54087e-06
1.92175e-06
5.54087e-06
1.94746e-06
5.54087e-06
1.97317e-06
5.54087e-06
1.99888e-06
5.54087e-06
2.02459e-06
5.54087e-06
2.0503e-06
5.54087e-06
2.07601e-06
5.54087e-06
2.10172e-06
5.54087e-06
2.12743e-06
5.54087e-06
5.54087e-06
2.23096e-06
-1.62155e-06
2.2231e-06
-1.62155e-06
2.21524e-06
-1.62155e-06
2.20738e-06
-1.62155e-06
2.19952e-06
-1.62155e-06
2.19166e-06
-1.62155e-06
2.1838e-06
-1.62155e-06
2.17594e-06
-1.62155e-06
2.16808e-06
-1.62155e-06
2.16021e-06
-1.62155e-06
2.15235e-06
-1.62155e-06
2.14449e-06
-1.62155e-06
2.13663e-06
-1.62155e-06
2.12877e-06
-1.62155e-06
2.12091e-06
-1.62155e-06
2.11305e-06
-1.62155e-06
2.10519e-06
-1.62155e-06
2.09732e-06
-1.62155e-06
2.08946e-06
-1.62155e-06
2.0816e-06
-1.62155e-06
2.07374e-06
-1.62155e-06
2.06588e-06
-1.62155e-06
2.05802e-06
-1.62155e-06
2.05016e-06
-1.62155e-06
2.0423e-06
-1.62155e-06
2.03443e-06
-1.62155e-06
2.02657e-06
-1.62155e-06
2.01871e-06
-1.62155e-06
2.01085e-06
-1.62155e-06
2.00299e-06
-1.62155e-06
1.99513e-06
-1.62155e-06
1.98727e-06
-1.62155e-06
1.97941e-06
-1.62155e-06
1.97155e-06
-1.62155e-06
1.96368e-06
-1.62155e-06
1.95582e-06
-1.62155e-06
1.94796e-06
-1.62155e-06
1.9401e-06
-1.62155e-06
1.93224e-06
-1.62155e-06
1.92438e-06
-1.62155e-06
1.91652e-06
-1.62155e-06
1.90866e-06
-1.62155e-06
1.9008e-06
-1.62155e-06
1.89293e-06
-1.62155e-06
1.88507e-06
-1.62155e-06
1.87721e-06
-1.62155e-06
1.89131e-06
2.90745e-06
1.91804e-06
5.51414e-06
1.94477e-06
5.51414e-06
1.9715e-06
5.51414e-06
1.99824e-06
5.51414e-06
2.02497e-06
5.51414e-06
2.0517e-06
5.51414e-06
2.07843e-06
5.51414e-06
2.10516e-06
5.51414e-06
2.1319e-06
5.51414e-06
2.15863e-06
5.51414e-06
2.18536e-06
5.51414e-06
2.21209e-06
5.51414e-06
2.23883e-06
5.51414e-06
2.23096e-06
-1.62155e-06
2.2231e-06
-1.62155e-06
2.21524e-06
-1.62155e-06
2.20738e-06
-1.62155e-06
2.19952e-06
-1.62155e-06
2.19166e-06
-1.62155e-06
2.1838e-06
-1.62155e-06
2.17594e-06
-1.62155e-06
2.16808e-06
-1.62155e-06
2.16021e-06
-1.62155e-06
2.15235e-06
-1.62155e-06
2.14449e-06
-1.62155e-06
2.13663e-06
-1.62155e-06
2.12877e-06
-1.62155e-06
2.12091e-06
-1.62155e-06
2.11305e-06
-1.62155e-06
2.10519e-06
-1.62155e-06
2.09732e-06
-1.62155e-06
2.08946e-06
-1.62155e-06
2.0816e-06
-1.62155e-06
2.07374e-06
-1.62155e-06
2.06588e-06
-1.62155e-06
2.05802e-06
-1.62155e-06
2.05016e-06
-1.62155e-06
2.0423e-06
-1.62155e-06
2.03443e-06
-1.62155e-06
2.02657e-06
-1.62155e-06
2.01871e-06
-1.62155e-06
2.01085e-06
-1.62155e-06
2.00299e-06
-1.62155e-06
1.99513e-06
-1.62155e-06
1.98727e-06
-1.62155e-06
1.97941e-06
-1.62155e-06
1.97155e-06
-1.62155e-06
1.96368e-06
-1.62155e-06
1.95582e-06
-1.62155e-06
1.94796e-06
-1.62155e-06
1.9401e-06
-1.62155e-06
1.93224e-06
-1.62155e-06
1.92438e-06
-1.62155e-06
1.91652e-06
-1.62155e-06
1.90866e-06
-1.62155e-06
1.9008e-06
-1.62155e-06
1.89293e-06
-1.62155e-06
1.88507e-06
-1.62155e-06
1.87721e-06
-1.62155e-06
1.89131e-06
2.90745e-06
1.91804e-06
5.51414e-06
1.94477e-06
5.51414e-06
1.9715e-06
5.51414e-06
1.99824e-06
5.51414e-06
2.02497e-06
5.51414e-06
2.0517e-06
5.51414e-06
2.07843e-06
5.51414e-06
2.10516e-06
5.51414e-06
2.1319e-06
5.51414e-06
2.15863e-06
5.51414e-06
2.18536e-06
5.51414e-06
2.21209e-06
5.51414e-06
5.51414e-06
2.31975e-06
-1.61338e-06
2.31158e-06
-1.61338e-06
2.30341e-06
-1.61338e-06
2.29523e-06
-1.61338e-06
2.28706e-06
-1.61338e-06
2.27888e-06
-1.61338e-06
2.27071e-06
-1.61338e-06
2.26253e-06
-1.61338e-06
2.25436e-06
-1.61338e-06
2.24619e-06
-1.61338e-06
2.23801e-06
-1.61338e-06
2.22984e-06
-1.61338e-06
2.22167e-06
-1.61338e-06
2.21349e-06
-1.61338e-06
2.20532e-06
-1.61338e-06
2.19714e-06
-1.61338e-06
2.18897e-06
-1.61338e-06
2.18079e-06
-1.61338e-06
2.17262e-06
-1.61338e-06
2.16445e-06
-1.61338e-06
2.15627e-06
-1.61338e-06
2.1481e-06
-1.61338e-06
2.13992e-06
-1.61338e-06
2.13175e-06
-1.61338e-06
2.12358e-06
-1.61338e-06
2.1154e-06
-1.61338e-06
2.10723e-06
-1.61338e-06
2.09905e-06
-1.61338e-06
2.09088e-06
-1.61338e-06
2.08271e-06
-1.61338e-06
2.07453e-06
-1.61338e-06
2.06636e-06
-1.61338e-06
2.05818e-06
-1.61338e-06
2.05001e-06
-1.61338e-06
2.04184e-06
-1.61338e-06
2.03366e-06
-1.61338e-06
2.02549e-06
-1.61338e-06
2.01731e-06
-1.61338e-06
2.00914e-06
-1.61338e-06
2.00097e-06
-1.61338e-06
1.99279e-06
-1.61338e-06
1.98462e-06
-1.61338e-06
1.97644e-06
-1.61338e-06
1.96827e-06
-1.61338e-06
1.9601e-06
-1.61338e-06
1.95192e-06
-1.61338e-06
1.96658e-06
2.8928e-06
1.99437e-06
5.48635e-06
2.02217e-06
5.48635e-06
2.04997e-06
5.48635e-06
2.07776e-06
5.48635e-06
2.10556e-06
5.48635e-06
2.13335e-06
5.48635e-06
2.16115e-06
5.48635e-06
2.18895e-06
5.48635e-06
2.21674e-06
5.48635e-06
2.24454e-06
5.48635e-06
2.27234e-06
5.48635e-06
2.30013e-06
5.48635e-06
2.32793e-06
5.48635e-06
2.31975e-06
-1.61338e-06
2.31158e-06
-1.61338e-06
2.30341e-06
-1.61338e-06
2.29523e-06
-1.61338e-06
2.28706e-06
-1.61338e-06
2.27888e-06
-1.61338e-06
2.27071e-06
-1.61338e-06
2.26253e-06
-1.61338e-06
2.25436e-06
-1.61338e-06
2.24619e-06
-1.61338e-06
2.23801e-06
-1.61338e-06
2.22984e-06
-1.61338e-06
2.22167e-06
-1.61338e-06
2.21349e-06
-1.61338e-06
2.20532e-06
-1.61338e-06
2.19714e-06
-1.61338e-06
2.18897e-06
-1.61338e-06
2.18079e-06
-1.61338e-06
2.17262e-06
-1.61338e-06
2.16445e-06
-1.61338e-06
2.15627e-06
-1.61338e-06
2.1481e-06
-1.61338e-06
2.13992e-06
-1.61338e-06
2.13175e-06
-1.61338e-06
2.12358e-06
-1.61338e-06
2.1154e-06
-1.61338e-06
2.10723e-06
-1.61338e-06
2.09905e-06
-1.61338e-06
2.09088e-06
-1.61338e-06
2.08271e-06
-1.61338e-06
2.07453e-06
-1.61338e-06
2.06636e-06
-1.61338e-06
2.05818e-06
-1.61338e-06
2.05001e-06
-1.61338e-06
2.04184e-06
-1.61338e-06
2.03366e-06
-1.61338e-06
2.02549e-06
-1.61338e-06
2.01731e-06
-1.61338e-06
2.00914e-06
-1.61338e-06
2.00097e-06
-1.61338e-06
1.99279e-06
-1.61338e-06
1.98462e-06
-1.61338e-06
1.97644e-06
-1.61338e-06
1.96827e-06
-1.61338e-06
1.9601e-06
-1.61338e-06
1.95192e-06
-1.61338e-06
1.96658e-06
2.8928e-06
1.99437e-06
5.48635e-06
2.02217e-06
5.48635e-06
2.04997e-06
5.48635e-06
2.07776e-06
5.48635e-06
2.10556e-06
5.48635e-06
2.13335e-06
5.48635e-06
2.16115e-06
5.48635e-06
2.18895e-06
5.48635e-06
2.21674e-06
5.48635e-06
2.24454e-06
5.48635e-06
2.27234e-06
5.48635e-06
2.30013e-06
5.48635e-06
5.48635e-06
2.41208e-06
-1.60488e-06
2.40358e-06
-1.60488e-06
2.39508e-06
-1.60488e-06
2.38658e-06
-1.60488e-06
2.37808e-06
-1.60488e-06
2.36958e-06
-1.60488e-06
2.36108e-06
-1.60488e-06
2.35258e-06
-1.60488e-06
2.34408e-06
-1.60488e-06
2.33558e-06
-1.60488e-06
2.32708e-06
-1.60488e-06
2.31858e-06
-1.60488e-06
2.31008e-06
-1.60488e-06
2.30158e-06
-1.60488e-06
2.29309e-06
-1.60488e-06
2.28459e-06
-1.60488e-06
2.27609e-06
-1.60488e-06
2.26759e-06
-1.60488e-06
2.25909e-06
-1.60488e-06
2.25059e-06
-1.60488e-06
2.24209e-06
-1.60488e-06
2.23359e-06
-1.60488e-06
2.22509e-06
-1.60488e-06
2.21659e-06
-1.60488e-06
2.20809e-06
-1.60488e-06
2.19959e-06
-1.60488e-06
2.19109e-06
-1.60488e-06
2.18259e-06
-1.60488e-06
2.17409e-06
-1.60488e-06
2.16559e-06
-1.60488e-06
2.1571e-06
-1.60488e-06
2.1486e-06
-1.60488e-06
2.1401e-06
-1.60488e-06
2.1316e-06
-1.60488e-06
2.1231e-06
-1.60488e-06
2.1146e-06
-1.60488e-06
2.1061e-06
-1.60488e-06
2.0976e-06
-1.60488e-06
2.0891e-06
-1.60488e-06
2.0806e-06
-1.60488e-06
2.0721e-06
-1.60488e-06
2.0636e-06
-1.60488e-06
2.0551e-06
-1.60488e-06
2.0466e-06
-1.60488e-06
2.0381e-06
-1.60488e-06
2.02961e-06
-1.60488e-06
2.04484e-06
2.87756e-06
2.07375e-06
5.45744e-06
2.10265e-06
5.45744e-06
2.13155e-06
5.45744e-06
2.16045e-06
5.45744e-06
2.18936e-06
5.45744e-06
2.21826e-06
5.45744e-06
2.24716e-06
5.45744e-06
2.27606e-06
5.45744e-06
2.30497e-06
5.45744e-06
2.33387e-06
5.45744e-06
2.36277e-06
5.45744e-06
2.39167e-06
5.45744e-06
2.42058e-06
5.45744e-06
2.41208e-06
-1.60488e-06
2.40358e-06
-1.60488e-06
2.39508e-06
-1.60488e-06
2.38658e-06
-1.60488e-06
2.37808e-06
-1.60488e-06
2.36958e-06
-1.60488e-06
2.36108e-06
-1.60488e-06
2.35258e-06
-1.60488e-06
2.34408e-06
-1.60488e-06
2.33558e-06
-1.60488e-06
2.32708e-06
-1.60488e-06
2.31858e-06
-1.60488e-06
2.31008e-06
-1.60488e-06
2.30158e-06
-1.60488e-06
2.29309e-06
-1.60488e-06
2.28459e-06
-1.60488e-06
2.27609e-06
-1.60488e-06
2.26759e-06
-1.60488e-06
2.25909e-06
-1.60488e-06
2.25059e-06
-1.60488e-06
2.24209e-06
-1.60488e-06
2.23359e-06
-1.60488e-06
2.22509e-06
-1.60488e-06
2.21659e-06
-1.60488e-06
2.20809e-06
-1.60488e-06
2.19959e-06
-1.60488e-06
2.19109e-06
-1.60488e-06
2.18259e-06
-1.60488e-06
2.17409e-06
-1.60488e-06
2.16559e-06
-1.60488e-06
2.1571e-06
-1.60488e-06
2.1486e-06
-1.60488e-06
2.1401e-06
-1.60488e-06
2.1316e-06
-1.60488e-06
2.1231e-06
-1.60488e-06
2.1146e-06
-1.60488e-06
2.1061e-06
-1.60488e-06
2.0976e-06
-1.60488e-06
2.0891e-06
-1.60488e-06
2.0806e-06
-1.60488e-06
2.0721e-06
-1.60488e-06
2.0636e-06
-1.60488e-06
2.0551e-06
-1.60488e-06
2.0466e-06
-1.60488e-06
2.0381e-06
-1.60488e-06
2.02961e-06
-1.60488e-06
2.04484e-06
2.87756e-06
2.07375e-06
5.45744e-06
2.10265e-06
5.45744e-06
2.13155e-06
5.45744e-06
2.16045e-06
5.45744e-06
2.18936e-06
5.45744e-06
2.21826e-06
5.45744e-06
2.24716e-06
5.45744e-06
2.27606e-06
5.45744e-06
2.30497e-06
5.45744e-06
2.33387e-06
5.45744e-06
2.36277e-06
5.45744e-06
2.39167e-06
5.45744e-06
5.45744e-06
2.50807e-06
-1.59604e-06
2.49924e-06
-1.59604e-06
2.4904e-06
-1.59604e-06
2.48156e-06
-1.59604e-06
2.47272e-06
-1.59604e-06
2.46389e-06
-1.59604e-06
2.45505e-06
-1.59604e-06
2.44621e-06
-1.59604e-06
2.43737e-06
-1.59604e-06
2.42853e-06
-1.59604e-06
2.4197e-06
-1.59604e-06
2.41086e-06
-1.59604e-06
2.40202e-06
-1.59604e-06
2.39318e-06
-1.59604e-06
2.38435e-06
-1.59604e-06
2.37551e-06
-1.59604e-06
2.36667e-06
-1.59604e-06
2.35783e-06
-1.59604e-06
2.349e-06
-1.59604e-06
2.34016e-06
-1.59604e-06
2.33132e-06
-1.59604e-06
2.32248e-06
-1.59604e-06
2.31365e-06
-1.59604e-06
2.30481e-06
-1.59604e-06
2.29597e-06
-1.59604e-06
2.28713e-06
-1.59604e-06
2.2783e-06
-1.59604e-06
2.26946e-06
-1.59604e-06
2.26062e-06
-1.59604e-06
2.25178e-06
-1.59604e-06
2.24294e-06
-1.59604e-06
2.23411e-06
-1.59604e-06
2.22527e-06
-1.59604e-06
2.21643e-06
-1.59604e-06
2.20759e-06
-1.59604e-06
2.19876e-06
-1.59604e-06
2.18992e-06
-1.59604e-06
2.18108e-06
-1.59604e-06
2.17224e-06
-1.59604e-06
2.16341e-06
-1.59604e-06
2.15457e-06
-1.59604e-06
2.14573e-06
-1.59604e-06
2.13689e-06
-1.59604e-06
2.12806e-06
-1.59604e-06
2.11922e-06
-1.59604e-06
2.11038e-06
-1.59604e-06
2.12623e-06
2.86171e-06
2.15628e-06
5.42739e-06
2.18633e-06
5.42739e-06
2.21638e-06
5.42739e-06
2.24644e-06
5.42739e-06
2.27649e-06
5.42739e-06
2.30654e-06
5.42739e-06
2.33659e-06
5.42739e-06
2.36665e-06
5.42739e-06
2.3967e-06
5.42739e-06
2.42675e-06
5.42739e-06
2.45681e-06
5.42739e-06
2.48686e-06
5.42739e-06
2.51691e-06
5.42739e-06
2.50807e-06
-1.59604e-06
2.49924e-06
-1.59604e-06
2.4904e-06
-1.59604e-06
2.48156e-06
-1.59604e-06
2.47272e-06
-1.59604e-06
2.46389e-06
-1.59604e-06
2.45505e-06
-1.59604e-06
2.44621e-06
-1.59604e-06
2.43737e-06
-1.59604e-06
2.42853e-06
-1.59604e-06
2.4197e-06
-1.59604e-06
2.41086e-06
-1.59604e-06
2.40202e-06
-1.59604e-06
2.39318e-06
-1.59604e-06
2.38435e-06
-1.59604e-06
2.37551e-06
-1.59604e-06
2.36667e-06
-1.59604e-06
2.35783e-06
-1.59604e-06
2.349e-06
-1.59604e-06
2.34016e-06
-1.59604e-06
2.33132e-06
-1.59604e-06
2.32248e-06
-1.59604e-06
2.31365e-06
-1.59604e-06
2.30481e-06
-1.59604e-06
2.29597e-06
-1.59604e-06
2.28713e-06
-1.59604e-06
2.2783e-06
-1.59604e-06
2.26946e-06
-1.59604e-06
2.26062e-06
-1.59604e-06
2.25178e-06
-1.59604e-06
2.24294e-06
-1.59604e-06
2.23411e-06
-1.59604e-06
2.22527e-06
-1.59604e-06
2.21643e-06
-1.59604e-06
2.20759e-06
-1.59604e-06
2.19876e-06
-1.59604e-06
2.18992e-06
-1.59604e-06
2.18108e-06
-1.59604e-06
2.17224e-06
-1.59604e-06
2.16341e-06
-1.59604e-06
2.15457e-06
-1.59604e-06
2.14573e-06
-1.59604e-06
2.13689e-06
-1.59604e-06
2.12806e-06
-1.59604e-06
2.11922e-06
-1.59604e-06
2.11038e-06
-1.59604e-06
2.12623e-06
2.86171e-06
2.15628e-06
5.42739e-06
2.18633e-06
5.42739e-06
2.21638e-06
5.42739e-06
2.24644e-06
5.42739e-06
2.27649e-06
5.42739e-06
2.30654e-06
5.42739e-06
2.33659e-06
5.42739e-06
2.36665e-06
5.42739e-06
2.3967e-06
5.42739e-06
2.42675e-06
5.42739e-06
2.45681e-06
5.42739e-06
2.48686e-06
5.42739e-06
5.42739e-06
2.60789e-06
-1.58685e-06
2.5987e-06
-1.58685e-06
2.58951e-06
-1.58685e-06
2.58032e-06
-1.58685e-06
2.57113e-06
-1.58685e-06
2.56194e-06
-1.58685e-06
2.55275e-06
-1.58685e-06
2.54356e-06
-1.58685e-06
2.53438e-06
-1.58685e-06
2.52519e-06
-1.58685e-06
2.516e-06
-1.58685e-06
2.50681e-06
-1.58685e-06
2.49762e-06
-1.58685e-06
2.48843e-06
-1.58685e-06
2.47924e-06
-1.58685e-06
2.47005e-06
-1.58685e-06
2.46086e-06
-1.58685e-06
2.45167e-06
-1.58685e-06
2.44248e-06
-1.58685e-06
2.43329e-06
-1.58685e-06
2.4241e-06
-1.58685e-06
2.41491e-06
-1.58685e-06
2.40572e-06
-1.58685e-06
2.39654e-06
-1.58685e-06
2.38735e-06
-1.58685e-06
2.37816e-06
-1.58685e-06
2.36897e-06
-1.58685e-06
2.35978e-06
-1.58685e-06
2.35059e-06
-1.58685e-06
2.3414e-06
-1.58685e-06
2.33221e-06
-1.58685e-06
2.32302e-06
-1.58685e-06
2.31383e-06
-1.58685e-06
2.30464e-06
-1.58685e-06
2.29545e-06
-1.58685e-06
2.28626e-06
-1.58685e-06
2.27707e-06
-1.58685e-06
2.26788e-06
-1.58685e-06
2.2587e-06
-1.58685e-06
2.24951e-06
-1.58685e-06
2.24032e-06
-1.58685e-06
2.23113e-06
-1.58685e-06
2.22194e-06
-1.58685e-06
2.21275e-06
-1.58685e-06
2.20356e-06
-1.58685e-06
2.19437e-06
-1.58685e-06
2.21085e-06
2.84523e-06
2.2421e-06
5.39614e-06
2.27334e-06
5.39614e-06
2.30459e-06
5.39614e-06
2.33584e-06
5.39614e-06
2.36709e-06
5.39614e-06
2.39834e-06
5.39614e-06
2.42959e-06
5.39614e-06
2.46084e-06
5.39614e-06
2.49208e-06
5.39614e-06
2.52333e-06
5.39614e-06
2.55458e-06
5.39614e-06
2.58583e-06
5.39614e-06
2.61708e-06
5.39614e-06
2.60789e-06
-1.58685e-06
2.5987e-06
-1.58685e-06
2.58951e-06
-1.58685e-06
2.58032e-06
-1.58685e-06
2.57113e-06
-1.58685e-06
2.56194e-06
-1.58685e-06
2.55275e-06
-1.58685e-06
2.54356e-06
-1.58685e-06
2.53438e-06
-1.58685e-06
2.52519e-06
-1.58685e-06
2.516e-06
-1.58685e-06
2.50681e-06
-1.58685e-06
2.49762e-06
-1.58685e-06
2.48843e-06
-1.58685e-06
2.47924e-06
-1.58685e-06
2.47005e-06
-1.58685e-06
2.46086e-06
-1.58685e-06
2.45167e-06
-1.58685e-06
2.44248e-06
-1.58685e-06
2.43329e-06
-1.58685e-06
2.4241e-06
-1.58685e-06
2.41491e-06
-1.58685e-06
2.40572e-06
-1.58685e-06
2.39654e-06
-1.58685e-06
2.38735e-06
-1.58685e-06
2.37816e-06
-1.58685e-06
2.36897e-06
-1.58685e-06
2.35978e-06
-1.58685e-06
2.35059e-06
-1.58685e-06
2.3414e-06
-1.58685e-06
2.33221e-06
-1.58685e-06
2.32302e-06
-1.58685e-06
2.31383e-06
-1.58685e-06
2.30464e-06
-1.58685e-06
2.29545e-06
-1.58685e-06
2.28626e-06
-1.58685e-06
2.27707e-06
-1.58685e-06
2.26788e-06
-1.58685e-06
2.2587e-06
-1.58685e-06
2.24951e-06
-1.58685e-06
2.24032e-06
-1.58685e-06
2.23113e-06
-1.58685e-06
2.22194e-06
-1.58685e-06
2.21275e-06
-1.58685e-06
2.20356e-06
-1.58685e-06
2.19437e-06
-1.58685e-06
2.21085e-06
2.84523e-06
2.2421e-06
5.39614e-06
2.27334e-06
5.39614e-06
2.30459e-06
5.39614e-06
2.33584e-06
5.39614e-06
2.36709e-06
5.39614e-06
2.39834e-06
5.39614e-06
2.42959e-06
5.39614e-06
2.46084e-06
5.39614e-06
2.49208e-06
5.39614e-06
2.52333e-06
5.39614e-06
2.55458e-06
5.39614e-06
2.58583e-06
5.39614e-06
5.39614e-06
2.71168e-06
-1.57729e-06
2.70212e-06
-1.57729e-06
2.69257e-06
-1.57729e-06
2.68302e-06
-1.57729e-06
2.67346e-06
-1.57729e-06
2.6639e-06
-1.57729e-06
2.65435e-06
-1.57729e-06
2.64479e-06
-1.57729e-06
2.63524e-06
-1.57729e-06
2.62568e-06
-1.57729e-06
2.61613e-06
-1.57729e-06
2.60657e-06
-1.57729e-06
2.59702e-06
-1.57729e-06
2.58746e-06
-1.57729e-06
2.57791e-06
-1.57729e-06
2.56835e-06
-1.57729e-06
2.5588e-06
-1.57729e-06
2.54924e-06
-1.57729e-06
2.53969e-06
-1.57729e-06
2.53013e-06
-1.57729e-06
2.52058e-06
-1.57729e-06
2.51102e-06
-1.57729e-06
2.50147e-06
-1.57729e-06
2.49191e-06
-1.57729e-06
2.48236e-06
-1.57729e-06
2.4728e-06
-1.57729e-06
2.46325e-06
-1.57729e-06
2.45369e-06
-1.57729e-06
2.44414e-06
-1.57729e-06
2.43458e-06
-1.57729e-06
2.42503e-06
-1.57729e-06
2.41547e-06
-1.57729e-06
2.40592e-06
-1.57729e-06
2.39636e-06
-1.57729e-06
2.38681e-06
-1.57729e-06
2.37725e-06
-1.57729e-06
2.3677e-06
-1.57729e-06
2.35814e-06
-1.57729e-06
2.34859e-06
-1.57729e-06
2.33903e-06
-1.57729e-06
2.32948e-06
-1.57729e-06
2.31992e-06
-1.57729e-06
2.31037e-06
-1.57729e-06
2.30081e-06
-1.57729e-06
2.29126e-06
-1.57729e-06
2.2817e-06
-1.57729e-06
2.29883e-06
2.8281e-06
2.33133e-06
5.36365e-06
2.36382e-06
5.36365e-06
2.39631e-06
5.36365e-06
2.4288e-06
5.36365e-06
2.4613e-06
5.36365e-06
2.49379e-06
5.36365e-06
2.52628e-06
5.36365e-06
2.55877e-06
5.36365e-06
2.59127e-06
5.36365e-06
2.62376e-06
5.36365e-06
2.65625e-06
5.36365e-06
2.68874e-06
5.36365e-06
2.72124e-06
5.36365e-06
2.71168e-06
-1.57729e-06
2.70212e-06
-1.57729e-06
2.69257e-06
-1.57729e-06
2.68302e-06
-1.57729e-06
2.67346e-06
-1.57729e-06
2.6639e-06
-1.57729e-06
2.65435e-06
-1.57729e-06
2.64479e-06
-1.57729e-06
2.63524e-06
-1.57729e-06
2.62568e-06
-1.57729e-06
2.61613e-06
-1.57729e-06
2.60657e-06
-1.57729e-06
2.59702e-06
-1.57729e-06
2.58746e-06
-1.57729e-06
2.57791e-06
-1.57729e-06
2.56835e-06
-1.57729e-06
2.5588e-06
-1.57729e-06
2.54924e-06
-1.57729e-06
2.53969e-06
-1.57729e-06
2.53013e-06
-1.57729e-06
2.52058e-06
-1.57729e-06
2.51102e-06
-1.57729e-06
2.50147e-06
-1.57729e-06
2.49191e-06
-1.57729e-06
2.48236e-06
-1.57729e-06
2.4728e-06
-1.57729e-06
2.46325e-06
-1.57729e-06
2.45369e-06
-1.57729e-06
2.44414e-06
-1.57729e-06
2.43458e-06
-1.57729e-06
2.42503e-06
-1.57729e-06
2.41547e-06
-1.57729e-06
2.40592e-06
-1.57729e-06
2.39636e-06
-1.57729e-06
2.38681e-06
-1.57729e-06
2.37725e-06
-1.57729e-06
2.3677e-06
-1.57729e-06
2.35814e-06
-1.57729e-06
2.34859e-06
-1.57729e-06
2.33903e-06
-1.57729e-06
2.32948e-06
-1.57729e-06
2.31992e-06
-1.57729e-06
2.31037e-06
-1.57729e-06
2.30081e-06
-1.57729e-06
2.29126e-06
-1.57729e-06
2.2817e-06
-1.57729e-06
2.29883e-06
2.8281e-06
2.33133e-06
5.36365e-06
2.36382e-06
5.36365e-06
2.39631e-06
5.36365e-06
2.4288e-06
5.36365e-06
2.4613e-06
5.36365e-06
2.49379e-06
5.36365e-06
2.52628e-06
5.36365e-06
2.55877e-06
5.36365e-06
2.59127e-06
5.36365e-06
2.62376e-06
5.36365e-06
2.65625e-06
5.36365e-06
2.68874e-06
5.36365e-06
5.36365e-06
2.8196e-06
-1.56736e-06
2.80967e-06
-1.56736e-06
2.79973e-06
-1.56736e-06
2.78979e-06
-1.56736e-06
2.77986e-06
-1.56736e-06
2.76992e-06
-1.56736e-06
2.75999e-06
-1.56736e-06
2.75005e-06
-1.56736e-06
2.74012e-06
-1.56736e-06
2.73018e-06
-1.56736e-06
2.72025e-06
-1.56736e-06
2.71031e-06
-1.56736e-06
2.70038e-06
-1.56736e-06
2.69044e-06
-1.56736e-06
2.68051e-06
-1.56736e-06
2.67057e-06
-1.56736e-06
2.66064e-06
-1.56736e-06
2.6507e-06
-1.56736e-06
2.64076e-06
-1.56736e-06
2.63083e-06
-1.56736e-06
2.62089e-06
-1.56736e-06
2.61096e-06
-1.56736e-06
2.60102e-06
-1.56736e-06
2.59109e-06
-1.56736e-06
2.58115e-06
-1.56736e-06
2.57122e-06
-1.56736e-06
2.56128e-06
-1.56736e-06
2.55135e-06
-1.56736e-06
2.54141e-06
-1.56736e-06
2.53148e-06
-1.56736e-06
2.52154e-06
-1.56736e-06
2.51161e-06
-1.56736e-06
2.50167e-06
-1.56736e-06
2.49173e-06
-1.56736e-06
2.4818e-06
-1.56736e-06
2.47186e-06
-1.56736e-06
2.46193e-06
-1.56736e-06
2.45199e-06
-1.56736e-06
2.44206e-06
-1.56736e-06
2.43212e-06
-1.56736e-06
2.42219e-06
-1.56736e-06
2.41225e-06
-1.56736e-06
2.40232e-06
-1.56736e-06
2.39238e-06
-1.56736e-06
2.38245e-06
-1.56736e-06
2.37251e-06
-1.56736e-06
2.39032e-06
2.81029e-06
2.42411e-06
5.32986e-06
2.4579e-06
5.32986e-06
2.49168e-06
5.32986e-06
2.52547e-06
5.32986e-06
2.55925e-06
5.32986e-06
2.59304e-06
5.32986e-06
2.62682e-06
5.32986e-06
2.66061e-06
5.32986e-06
2.69439e-06
5.32986e-06
2.72818e-06
5.32986e-06
2.76196e-06
5.32986e-06
2.79575e-06
5.32986e-06
2.82954e-06
5.32986e-06
2.8196e-06
-1.56736e-06
2.80967e-06
-1.56736e-06
2.79973e-06
-1.56736e-06
2.78979e-06
-1.56736e-06
2.77986e-06
-1.56736e-06
2.76992e-06
-1.56736e-06
2.75999e-06
-1.56736e-06
2.75005e-06
-1.56736e-06
2.74012e-06
-1.56736e-06
2.73018e-06
-1.56736e-06
2.72025e-06
-1.56736e-06
2.71031e-06
-1.56736e-06
2.70038e-06
-1.56736e-06
2.69044e-06
-1.56736e-06
2.68051e-06
-1.56736e-06
2.67057e-06
-1.56736e-06
2.66064e-06
-1.56736e-06
2.6507e-06
-1.56736e-06
2.64076e-06
-1.56736e-06
2.63083e-06
-1.56736e-06
2.62089e-06
-1.56736e-06
2.61096e-06
-1.56736e-06
2.60102e-06
-1.56736e-06
2.59109e-06
-1.56736e-06
2.58115e-06
-1.56736e-06
2.57122e-06
-1.56736e-06
2.56128e-06
-1.56736e-06
2.55135e-06
-1.56736e-06
2.54141e-06
-1.56736e-06
2.53148e-06
-1.56736e-06
2.52154e-06
-1.56736e-06
2.51161e-06
-1.56736e-06
2.50167e-06
-1.56736e-06
2.49173e-06
-1.56736e-06
2.4818e-06
-1.56736e-06
2.47186e-06
-1.56736e-06
2.46193e-06
-1.56736e-06
2.45199e-06
-1.56736e-06
2.44206e-06
-1.56736e-06
2.43212e-06
-1.56736e-06
2.42219e-06
-1.56736e-06
2.41225e-06
-1.56736e-06
2.40232e-06
-1.56736e-06
2.39238e-06
-1.56736e-06
2.38245e-06
-1.56736e-06