/*--------------------------------*- C++ -*----------------------------------*\
| =========                 |                                                 |
| \\      /  F ield         | OpenFOAM: The Open Source CFD Toolbox           |
|  \\    /   O peration     | Version:  5.x                                   |
|   \\  /    A nd           | Web:      www.OpenFOAM.org                      |
|    \\/     M anipulation  |                                                 |
\*---------------------------------------------------------------------------*/
FoamFile
{
    version     2.0;
    format      ascii;
    class       volScalarField;
    location    "300/surface";
    object      Dt_CoeffMean;
}
// * * * * * * * * * * * * * * * * * * * * * * * * * * * * * * * * * * * * * //

dimensions      [0 2 -1 0 0 0 0];

internalField   nonuniform List<scalar> 
7200
(
1.00002e-06
1.00003e-06
1.00004e-06
1.00006e-06
1.00008e-06
1.00011e-06
1.00013e-06
1.00016e-06
1.00018e-06
1.0002e-06
1.00022e-06
1.00024e-06
1.00025e-06
1.00026e-06
1.00026e-06
1.00026e-06
1.00026e-06
1.00026e-06
1.00026e-06
1.00026e-06
1.00025e-06
1.00025e-06
1.00024e-06
1.00023e-06
1.00023e-06
1.00022e-06
1.00022e-06
1.00021e-06
1.00021e-06
1.0002e-06
1.0002e-06
1.00019e-06
1.00019e-06
1.00019e-06
1.00018e-06
1.00018e-06
1.00018e-06
1.00018e-06
1.00018e-06
1.00018e-06
1.00018e-06
1.00018e-06
1.0002e-06
1.00018e-06
1.00022e-06
1.00044e-06
1.00011e-06
1.00002e-06
1.00001e-06
1.00001e-06
1.00001e-06
1.00001e-06
1.00001e-06
1.00001e-06
1.00001e-06
1.00001e-06
1.00001e-06
1.00001e-06
1.00002e-06
1.00002e-06
1.00002e-06
1.00003e-06
1.00004e-06
1.00006e-06
1.00008e-06
1.00011e-06
1.00013e-06
1.00016e-06
1.00018e-06
1.0002e-06
1.00022e-06
1.00024e-06
1.00025e-06
1.00026e-06
1.00026e-06
1.00026e-06
1.00026e-06
1.00026e-06
1.00026e-06
1.00026e-06
1.00025e-06
1.00025e-06
1.00024e-06
1.00023e-06
1.00023e-06
1.00022e-06
1.00022e-06
1.00021e-06
1.00021e-06
1.0002e-06
1.0002e-06
1.00019e-06
1.00019e-06
1.00019e-06
1.00018e-06
1.00018e-06
1.00018e-06
1.00018e-06
1.00018e-06
1.00018e-06
1.00018e-06
1.00018e-06
1.0002e-06
1.00018e-06
1.00022e-06
1.00044e-06
1.00011e-06
1.00002e-06
1.00001e-06
1.00001e-06
1.00001e-06
1.00001e-06
1.00001e-06
1.00001e-06
1.00001e-06
1.00001e-06
1.00001e-06
1.00001e-06
1.00002e-06
1.00002e-06
1.00088e-06
1.00236e-06
1.00543e-06
1.00864e-06
1.01284e-06
1.01703e-06
1.02127e-06
1.02551e-06
1.02966e-06
1.0336e-06
1.03701e-06
1.03987e-06
1.04208e-06
1.04375e-06
1.04478e-06
1.04533e-06
1.04537e-06
1.04507e-06
1.04453e-06
1.04381e-06
1.04283e-06
1.04176e-06
1.0406e-06
1.03942e-06
1.03822e-06
1.03707e-06
1.03594e-06
1.03492e-06
1.03389e-06
1.03302e-06
1.03211e-06
1.03141e-06
1.03063e-06
1.03009e-06
1.02948e-06
1.02905e-06
1.02869e-06
1.02828e-06
1.02835e-06
1.02786e-06
1.02874e-06
1.02759e-06
1.03109e-06
1.02777e-06
1.03441e-06
1.06708e-06
1.0162e-06
1.00175e-06
1.00021e-06
1.0002e-06
1.00022e-06
1.00022e-06
1.0002e-06
1.00022e-06
1.00025e-06
1.0003e-06
1.00043e-06
1.00068e-06
1.00105e-06
1.00122e-06
1.00088e-06
1.00236e-06
1.00543e-06
1.00864e-06
1.01284e-06
1.01703e-06
1.02127e-06
1.02551e-06
1.02966e-06
1.0336e-06
1.03701e-06
1.03987e-06
1.04208e-06
1.04374e-06
1.04478e-06
1.04533e-06
1.04537e-06
1.04507e-06
1.04453e-06
1.0438e-06
1.04283e-06
1.04175e-06
1.0406e-06
1.03942e-06
1.03822e-06
1.03707e-06
1.03594e-06
1.03492e-06
1.03389e-06
1.03302e-06
1.03211e-06
1.03142e-06
1.03064e-06
1.03009e-06
1.02948e-06
1.02906e-06
1.02869e-06
1.02828e-06
1.02835e-06
1.02786e-06
1.02874e-06
1.02759e-06
1.03109e-06
1.02778e-06
1.03442e-06
1.06708e-06
1.0162e-06
1.00175e-06
1.00021e-06
1.0002e-06
1.00022e-06
1.00022e-06
1.0002e-06
1.00022e-06
1.00025e-06
1.0003e-06
1.00043e-06
1.00068e-06
1.00105e-06
1.00122e-06
1.01703e-06
1.0444e-06
1.1036e-06
1.16396e-06
1.24173e-06
1.31736e-06
1.39263e-06
1.46535e-06
1.53293e-06
1.59492e-06
1.64896e-06
1.69388e-06
1.72874e-06
1.75443e-06
1.77043e-06
1.77819e-06
1.77787e-06
1.77166e-06
1.7613e-06
1.74732e-06
1.72888e-06
1.70872e-06
1.68695e-06
1.66469e-06
1.64182e-06
1.61969e-06
1.59782e-06
1.57758e-06
1.55721e-06
1.53939e-06
1.52076e-06
1.50618e-06
1.4893e-06
1.47759e-06
1.46312e-06
1.45338e-06
1.44302e-06
1.43322e-06
1.42906e-06
1.41783e-06
1.42451e-06
1.40435e-06
1.44194e-06
1.39183e-06
1.46353e-06
1.92457e-06
1.17197e-06
1.02994e-06
1.00511e-06
1.00385e-06
1.0043e-06
1.00432e-06
1.00373e-06
1.00399e-06
1.0045e-06
1.00536e-06
1.00785e-06
1.01295e-06
1.02117e-06
1.02549e-06
1.01704e-06
1.0444e-06
1.1036e-06
1.16395e-06
1.24171e-06
1.31734e-06
1.3926e-06
1.46531e-06
1.5329e-06
1.59488e-06
1.64892e-06
1.69385e-06
1.72871e-06
1.7544e-06
1.7704e-06
1.77817e-06
1.77784e-06
1.77164e-06
1.76128e-06
1.74731e-06
1.72888e-06
1.70872e-06
1.68696e-06
1.6647e-06
1.64183e-06
1.6197e-06
1.59785e-06
1.5776e-06
1.55723e-06
1.53942e-06
1.52079e-06
1.50621e-06
1.48933e-06
1.47763e-06
1.46316e-06
1.45341e-06
1.44305e-06
1.43326e-06
1.42909e-06
1.41787e-06
1.42455e-06
1.40438e-06
1.44197e-06
1.39186e-06
1.46359e-06
1.92463e-06
1.17196e-06
1.02994e-06
1.00511e-06
1.00385e-06
1.0043e-06
1.00432e-06
1.00373e-06
1.00399e-06
1.0045e-06
1.00536e-06
1.00785e-06
1.01295e-06
1.02117e-06
1.02549e-06
1.11148e-06
1.27875e-06
1.62823e-06
1.93324e-06
2.2856e-06
2.60444e-06
2.90213e-06
3.17338e-06
3.41674e-06
3.63137e-06
3.81356e-06
3.95991e-06
4.07075e-06
4.14824e-06
4.19364e-06
4.21089e-06
4.2018e-06
4.17293e-06
4.13012e-06
4.07343e-06
4.00204e-06
3.92433e-06
3.84021e-06
3.75349e-06
3.66377e-06
3.57568e-06
3.48761e-06
3.40405e-06
3.31975e-06
3.243e-06
3.16405e-06
3.09746e-06
3.02426e-06
2.96779e-06
2.90197e-06
2.85305e-06
2.8011e-06
2.7516e-06
2.72382e-06
2.6673e-06
2.66981e-06
2.60079e-06
2.68527e-06
2.55093e-06
2.43051e-06
4.79191e-06
1.60094e-06
1.13485e-06
1.04014e-06
1.02921e-06
1.03426e-06
1.03509e-06
1.02949e-06
1.02914e-06
1.03037e-06
1.03509e-06
1.05215e-06
1.08781e-06
1.14722e-06
1.17492e-06
1.11149e-06
1.27873e-06
1.62818e-06
1.93319e-06
2.28553e-06
2.60436e-06
2.90204e-06
3.17328e-06
3.41665e-06
3.63128e-06
3.81347e-06
3.95983e-06
4.07066e-06
4.14815e-06
4.19355e-06
4.21081e-06
4.20173e-06
4.17287e-06
4.13006e-06
4.0734e-06
4.00203e-06
3.92434e-06
3.84024e-06
3.75354e-06
3.66383e-06
3.57574e-06
3.48768e-06
3.40413e-06
3.31983e-06
3.24309e-06
3.16415e-06
3.09756e-06
3.02436e-06
2.9679e-06
2.90208e-06
2.85316e-06
2.80121e-06
2.7517e-06
2.72392e-06
2.66741e-06
2.66991e-06
2.6009e-06
2.68537e-06
2.55104e-06
2.43068e-06
4.7922e-06
1.60093e-06
1.13484e-06
1.04014e-06
1.02922e-06
1.03427e-06
1.03509e-06
1.02949e-06
1.02913e-06
1.03037e-06
1.03509e-06
1.05215e-06
1.08782e-06
1.14723e-06
1.17494e-06
1.39515e-06
1.94912e-06
2.86432e-06
3.57664e-06
4.32148e-06
4.96106e-06
5.53041e-06
6.03772e-06
6.4769e-06
6.85664e-06
7.17218e-06
7.42223e-06
7.60815e-06
7.73497e-06
7.80806e-06
7.83168e-06
7.81203e-06
7.75816e-06
7.68139e-06
7.57831e-06
7.45069e-06
7.31098e-06
7.15917e-06
7.00116e-06
6.83671e-06
6.6729e-06
6.50809e-06
6.34826e-06
6.18707e-06
6.0354e-06
5.88178e-06
5.74437e-06
5.59992e-06
5.47759e-06
5.34566e-06
5.23592e-06
5.12659e-06
5.01983e-06
4.94756e-06
4.8334e-06
4.81097e-06
4.69754e-06
4.78308e-06
4.64088e-06
4.82201e-06
7.55376e-06
2.69676e-06
1.37982e-06
1.13532e-06
1.1134e-06
1.15403e-06
1.16478e-06
1.13773e-06
1.12703e-06
1.12352e-06
1.13401e-06
1.19522e-06
1.32434e-06
1.51595e-06
1.58658e-06
1.39514e-06
1.94907e-06
2.86422e-06
3.57653e-06
4.32134e-06
4.96089e-06
5.53023e-06
6.03754e-06
6.47673e-06
6.85648e-06
7.17204e-06
7.4221e-06
7.608e-06
7.7348e-06
7.8079e-06
7.83154e-06
7.81191e-06
7.75805e-06
7.68129e-06
7.57827e-06
7.45068e-06
7.31101e-06
7.15923e-06
7.00125e-06
6.83682e-06
6.67302e-06
6.50823e-06
6.34842e-06
6.18724e-06
6.03558e-06
5.88197e-06
5.74457e-06
5.60013e-06
5.4778e-06
5.34588e-06
5.23613e-06
5.12681e-06
5.02005e-06
4.94778e-06
4.83362e-06
4.81119e-06
4.69776e-06
4.78329e-06
4.6411e-06
4.82254e-06
7.55417e-06
2.69683e-06
1.37982e-06
1.13532e-06
1.11341e-06
1.15405e-06
1.16479e-06
1.13773e-06
1.12703e-06
1.12351e-06
1.13401e-06
1.19522e-06
1.32435e-06
1.51597e-06
1.58661e-06
1.93312e-06
3.1709e-06
4.68413e-06
5.81899e-06
6.91419e-06
7.84313e-06
8.64841e-06
9.35465e-06
9.95604e-06
1.04701e-05
1.08922e-05
1.12245e-05
1.14695e-05
1.16369e-05
1.17338e-05
1.17666e-05
1.17441e-05
1.16777e-05
1.15847e-05
1.14528e-05
1.12903e-05
1.11101e-05
1.09133e-05
1.07065e-05
1.049e-05
1.02721e-05
1.00516e-05
9.8346e-06
9.61545e-06
9.40516e-06
9.19378e-06
8.99789e-06
8.79707e-06
8.61741e-06
8.43197e-06
8.26814e-06
8.10868e-06
7.95523e-06
7.83252e-06
7.68562e-06
7.62484e-06
7.487e-06
7.55239e-06
7.44625e-06
7.74059e-06
1.04776e-05
5.25406e-06
1.81989e-06
1.33609e-06
1.25452e-06
1.42493e-06
1.50646e-06
1.4446e-06
1.39332e-06
1.36305e-06
1.36692e-06
1.50431e-06
1.79002e-06
2.1622e-06
2.25639e-06
1.93308e-06
3.1708e-06
4.68397e-06
5.8188e-06
6.91397e-06
7.84286e-06
8.64813e-06
9.35437e-06
9.95579e-06
1.04699e-05
1.08921e-05
1.12243e-05
1.14693e-05
1.16367e-05
1.17336e-05
1.17664e-05
1.1744e-05
1.16775e-05
1.15846e-05
1.14527e-05
1.12903e-05
1.11101e-05
1.09134e-05
1.07067e-05
1.04902e-05
1.02723e-05
1.00518e-05
9.83484e-06
9.61572e-06
9.40544e-06
9.19409e-06
8.9982e-06
8.7974e-06
8.61774e-06
8.43232e-06
8.26848e-06
8.10904e-06
7.95558e-06
7.83288e-06
7.68597e-06
7.62519e-06
7.48735e-06
7.55275e-06
7.44659e-06
7.74095e-06
1.04782e-05
5.25427e-06
1.81989e-06
1.33608e-06
1.25454e-06
1.42497e-06
1.5065e-06
1.44462e-06
1.39333e-06
1.36306e-06
1.36692e-06
1.5043e-06
1.79002e-06
2.16222e-06
2.25641e-06
2.75177e-06
4.84474e-06
6.79377e-06
8.28434e-06
9.66027e-06
1.08058e-05
1.17866e-05
1.26364e-05
1.33532e-05
1.39588e-05
1.44535e-05
1.48398e-05
1.5125e-05
1.53213e-05
1.54376e-05
1.54821e-05
1.5464e-05
1.53997e-05
1.5306e-05
1.51659e-05
1.49951e-05
1.48003e-05
1.45875e-05
1.43605e-05
1.41221e-05
1.38792e-05
1.36327e-05
1.33868e-05
1.3138e-05
1.28961e-05
1.26538e-05
1.24239e-05
1.21912e-05
1.19767e-05
1.17587e-05
1.15629e-05
1.13678e-05
1.11918e-05
1.10272e-05
1.08747e-05
1.07669e-05
1.06489e-05
1.0672e-05
1.06116e-05
1.08564e-05
1.33637e-05
9.7704e-06
2.53e-06
1.67695e-06
1.44753e-06
1.73115e-06
2.04908e-06
2.0308e-06
1.91596e-06
1.8289e-06
1.79066e-06
2.00785e-06
2.46133e-06
2.99829e-06
3.12896e-06
2.75168e-06
4.84457e-06
6.79356e-06
8.28408e-06
9.65999e-06
1.08054e-05
1.17863e-05
1.2636e-05
1.33529e-05
1.39585e-05
1.44533e-05
1.48396e-05
1.51247e-05
1.5321e-05
1.54374e-05
1.54819e-05
1.54638e-05
1.53995e-05
1.53059e-05
1.51659e-05
1.49951e-05
1.48004e-05
1.45876e-05
1.43606e-05
1.41223e-05
1.38795e-05
1.3633e-05
1.33871e-05
1.31384e-05
1.28965e-05
1.26542e-05
1.24243e-05
1.21917e-05
1.19772e-05
1.17592e-05
1.15634e-05
1.13683e-05
1.11923e-05
1.10277e-05
1.08752e-05
1.07674e-05
1.06494e-05
1.06725e-05
1.06121e-05
1.08569e-05
1.33645e-05
9.77081e-06
2.53002e-06
1.67695e-06
1.44754e-06
1.73121e-06
2.04916e-06
2.03086e-06
1.91599e-06
1.82891e-06
1.79065e-06
2.00784e-06
2.46132e-06
2.99828e-06
3.12892e-06
3.86927e-06
6.72761e-06
8.96964e-06
1.07416e-05
1.23071e-05
1.35958e-05
1.46908e-05
1.56261e-05
1.64081e-05
1.70596e-05
1.75896e-05
1.80003e-05
1.83055e-05
1.85189e-05
1.86508e-05
1.87097e-05
1.87044e-05
1.86574e-05
1.85772e-05
1.84489e-05
1.82898e-05
1.81047e-05
1.79024e-05
1.76816e-05
1.74492e-05
1.72097e-05
1.69651e-05
1.67185e-05
1.64679e-05
1.62224e-05
1.59752e-05
1.57377e-05
1.54972e-05
1.52732e-05
1.5044e-05
1.48407e-05
1.46283e-05
1.44509e-05
1.42628e-05
1.4122e-05
1.39795e-05
1.38909e-05
1.38614e-05
1.38577e-05
1.40102e-05
1.6063e-05
1.38944e-05
3.87386e-06
2.21772e-06
1.74331e-06
1.88873e-06
2.52569e-06
2.76569e-06
2.67136e-06
2.53966e-06
2.43303e-06
2.68817e-06
3.27199e-06
3.93496e-06
4.14766e-06
3.86913e-06
6.72738e-06
8.96938e-06
1.07413e-05
1.23067e-05
1.35954e-05
1.46904e-05
1.56256e-05
1.64078e-05
1.70593e-05
1.75893e-05
1.8e-05
1.83051e-05
1.85185e-05
1.86504e-05
1.87094e-05
1.87042e-05
1.86572e-05
1.85771e-05
1.84489e-05
1.82898e-05
1.81048e-05
1.79026e-05
1.76818e-05
1.74495e-05
1.721e-05
1.69656e-05
1.67189e-05
1.64684e-05
1.62229e-05
1.59758e-05
1.57383e-05
1.54978e-05
1.52738e-05
1.50446e-05
1.48413e-05
1.46289e-05
1.44516e-05
1.42634e-05
1.41227e-05
1.39802e-05
1.38916e-05
1.38621e-05
1.38584e-05
1.40109e-05
1.6064e-05
1.3895e-05
3.87393e-06
2.21773e-06
1.74332e-06
1.88878e-06
2.52578e-06
2.76578e-06
2.67142e-06
2.5397e-06
2.43303e-06
2.68816e-06
3.27197e-06
3.93494e-06
4.14759e-06
5.24259e-06
8.63543e-06
1.11012e-05
1.30345e-05
1.47137e-05
1.60802e-05
1.72295e-05
1.81932e-05
1.89898e-05
1.96459e-05
2.01778e-05
2.05882e-05
2.08963e-05
2.11164e-05
2.126e-05
2.13348e-05
2.13489e-05
2.13307e-05
2.12787e-05
2.11818e-05
2.10555e-05
2.09022e-05
2.07291e-05
2.05367e-05
2.03336e-05
2.01205e-05
1.99017e-05
1.96784e-05
1.94505e-05
1.9224e-05
1.89966e-05
1.87733e-05
1.85491e-05
1.83352e-05
1.81195e-05
1.79242e-05
1.77207e-05
1.75513e-05
1.73674e-05
1.72364e-05
1.70901e-05
1.70144e-05
1.69683e-05
1.69811e-05
1.70702e-05
1.86946e-05
1.73965e-05
6.04635e-06
2.96672e-06
2.22096e-06
2.19337e-06
2.69926e-06
3.33305e-06
3.49491e-06
3.40662e-06
3.28104e-06
3.50423e-06
4.1659e-06
4.9331e-06
5.23963e-06
5.24237e-06
8.63515e-06
1.11009e-05
1.30342e-05
1.47133e-05
1.60798e-05
1.72291e-05
1.81927e-05
1.89894e-05
1.96456e-05
2.01776e-05
2.05879e-05
2.08959e-05
2.11161e-05
2.12597e-05
2.13345e-05
2.13487e-05
2.13305e-05
2.12786e-05
2.11818e-05
2.10556e-05
2.09024e-05
2.07294e-05
2.0537e-05
2.0334e-05
2.01209e-05
1.99022e-05
1.9679e-05
1.94511e-05
1.92246e-05
1.89973e-05
1.8774e-05
1.85499e-05
1.8336e-05
1.81203e-05
1.79249e-05
1.77215e-05
1.75521e-05
1.73683e-05
1.72372e-05
1.70909e-05
1.70152e-05
1.69691e-05
1.6982e-05
1.70711e-05
1.86957e-05
1.73974e-05
6.04652e-06
2.96674e-06
2.22097e-06
2.19342e-06
2.69932e-06
3.33315e-06
3.49499e-06
3.40667e-06
3.28104e-06
3.50422e-06
4.1659e-06
4.93308e-06
5.23956e-06
6.74795e-06
1.04638e-05
1.3086e-05
1.50806e-05
1.68047e-05
1.81882e-05
1.93348e-05
2.02799e-05
2.10519e-05
2.16814e-05
2.21911e-05
2.25843e-05
2.28834e-05
2.31028e-05
2.32556e-05
2.3347e-05
2.33848e-05
2.34023e-05
2.33896e-05
2.33347e-05
2.32549e-05
2.31508e-05
2.30262e-05
2.28832e-05
2.27259e-05
2.25575e-05
2.23836e-05
2.22027e-05
2.2016e-05
2.18286e-05
2.16386e-05
2.14498e-05
2.12592e-05
2.10753e-05
2.08898e-05
2.07186e-05
2.05438e-05
2.03906e-05
2.02376e-05
2.0113e-05
1.99967e-05
1.99269e-05
1.98881e-05
1.99052e-05
1.99405e-05
2.12962e-05
2.03989e-05
9.41457e-06
3.75949e-06
2.83518e-06
2.54654e-06
2.70673e-06
3.6156e-06
4.10982e-06
4.27579e-06
4.2501e-06
4.4206e-06
5.10325e-06
5.95688e-06
6.39726e-06
6.74766e-06
1.04635e-05
1.30857e-05
1.50803e-05
1.68043e-05
1.81878e-05
1.93344e-05
2.02795e-05
2.10516e-05
2.16812e-05
2.21909e-05
2.2584e-05
2.28831e-05
2.31025e-05
2.32553e-05
2.33467e-05
2.33846e-05
2.34022e-05
2.33896e-05
2.33348e-05
2.3255e-05
2.3151e-05
2.30266e-05
2.28836e-05
2.27264e-05
2.2558e-05
2.23842e-05
2.22034e-05
2.20168e-05
2.18294e-05
2.16395e-05
2.14507e-05
2.12602e-05
2.10763e-05
2.08908e-05
2.07196e-05
2.05449e-05
2.03916e-05
2.02386e-05
2.01141e-05
1.99977e-05
1.9928e-05
1.98892e-05
1.99063e-05
1.99416e-05
2.12975e-05
2.04001e-05
9.41493e-06
3.75957e-06
2.8352e-06
2.54659e-06
2.70679e-06
3.6157e-06
4.10991e-06
4.27585e-06
4.25011e-06
4.4206e-06
5.10327e-06
5.95689e-06
6.39724e-06
8.29024e-06
1.21578e-05
1.4848e-05
1.68337e-05
1.85404e-05
1.98879e-05
2.09948e-05
2.18985e-05
2.26298e-05
2.32216e-05
2.37004e-05
2.40674e-05
2.43514e-05
2.45667e-05
2.47243e-05
2.4827e-05
2.48846e-05
2.49394e-05
2.49596e-05
2.49463e-05
2.49207e-05
2.48748e-05
2.48092e-05
2.47276e-05
2.46316e-05
2.45248e-05
2.44091e-05
2.42845e-05
2.41537e-05
2.402e-05
2.38815e-05
2.3742e-05
2.35985e-05
2.34598e-05
2.33178e-05
2.31864e-05
2.30516e-05
2.29316e-05
2.28167e-05
2.27177e-05
2.26363e-05
2.2585e-05
2.25601e-05
2.25973e-05
2.25772e-05
2.37796e-05
2.3016e-05
1.33693e-05
5.16512e-06
3.48205e-06
3.1174e-06
3.01981e-06
3.46632e-06
4.44182e-06
4.93409e-06
5.19013e-06
5.39274e-06
6.05769e-06
6.97948e-06
7.5724e-06
8.2899e-06
1.21574e-05
1.48477e-05
1.68334e-05
1.854e-05
1.98876e-05
2.09944e-05
2.18981e-05
2.26294e-05
2.32214e-05
2.37002e-05
2.40672e-05
2.43511e-05
2.45665e-05
2.47241e-05
2.48268e-05
2.48845e-05
2.49394e-05
2.49597e-05
2.49464e-05
2.49209e-05
2.48751e-05
2.48096e-05
2.47281e-05
2.46322e-05
2.45254e-05
2.44099e-05
2.42853e-05
2.41546e-05
2.40209e-05
2.38825e-05
2.37431e-05
2.35996e-05
2.3461e-05
2.3319e-05
2.31876e-05
2.30529e-05
2.29329e-05
2.2818e-05
2.2719e-05
2.26376e-05
2.25863e-05
2.25615e-05
2.25986e-05
2.25785e-05
2.37811e-05
2.30174e-05
1.33699e-05
5.16533e-06
3.48209e-06
3.11746e-06
3.01986e-06
3.4664e-06
4.44191e-06
4.93416e-06
5.19016e-06
5.39276e-06
6.05773e-06
6.97953e-06
7.57245e-06
9.78001e-06
1.36927e-05
1.63313e-05
1.82673e-05
1.99064e-05
2.11921e-05
2.22329e-05
2.30704e-05
2.37394e-05
2.42763e-05
2.47125e-05
2.50466e-05
2.53124e-05
2.55236e-05
2.56895e-05
2.5805e-05
2.59002e-05
2.60001e-05
2.60634e-05
2.61056e-05
2.61337e-05
2.61423e-05
2.61345e-05
2.61212e-05
2.60946e-05
2.60601e-05
2.60126e-05
2.59543e-05
2.58891e-05
2.58191e-05
2.57431e-05
2.56631e-05
2.55772e-05
2.54943e-05
2.54059e-05
2.53249e-05
2.52394e-05
2.51645e-05
2.50948e-05
2.50354e-05
2.49915e-05
2.49789e-05
2.49643e-05
2.50673e-05
2.49791e-05
2.60894e-05
2.53575e-05
1.74108e-05
8.1387e-06
4.21746e-06
3.63486e-06
3.51041e-06
3.53851e-06
4.49012e-06
5.30509e-06
5.90545e-06
6.33121e-06
6.99448e-06
7.97756e-06
8.72307e-06
9.77961e-06
1.36923e-05
1.6331e-05
1.8267e-05
1.99061e-05
2.11917e-05
2.22325e-05
2.30701e-05
2.37391e-05
2.4276e-05
2.47123e-05
2.50464e-05
2.53123e-05
2.55234e-05
2.56894e-05
2.58049e-05
2.59002e-05
2.60002e-05
2.60636e-05
2.61059e-05
2.61341e-05
2.61428e-05
2.61351e-05
2.61218e-05
2.60954e-05
2.60609e-05
2.60135e-05
2.59553e-05
2.58901e-05
2.58203e-05
2.57443e-05
2.56644e-05
2.55785e-05
2.54957e-05
2.54073e-05
2.53264e-05
2.52409e-05
2.5166e-05
2.50963e-05
2.5037e-05
2.4993e-05
2.49805e-05
2.49659e-05
2.5069e-05
2.49807e-05
2.60911e-05
2.53592e-05
1.74117e-05
8.13926e-06
4.21753e-06
3.6349e-06
3.51046e-06
3.53857e-06
4.4902e-06
5.30518e-06
5.90551e-06
6.33125e-06
6.99455e-06
7.97766e-06
8.7232e-06
1.11661e-05
1.50028e-05
1.75125e-05
1.9365e-05
2.09021e-05
2.20993e-05
2.30546e-05
2.38142e-05
2.44126e-05
2.48897e-05
2.5282e-05
2.51834e-05
2.5093e-05
2.50667e-05
2.51148e-05
2.52328e-05
2.5458e-05
2.57501e-05
2.60712e-05
2.64317e-05
2.68225e-05
2.70196e-05
2.70811e-05
2.71336e-05
2.71812e-05
2.72226e-05
2.72475e-05
2.72624e-05
2.7269e-05
2.72714e-05
2.72641e-05
2.72509e-05
2.723e-05
2.72107e-05
2.7183e-05
2.71603e-05
2.713e-05
2.71094e-05
2.70889e-05
2.70795e-05
2.70754e-05
2.71097e-05
2.71135e-05
2.72856e-05
2.71707e-05
2.82117e-05
2.75091e-05
2.11311e-05
1.20592e-05
5.43926e-06
4.23498e-06
4.00845e-06
3.95496e-06
4.31844e-06
5.5784e-06
6.26321e-06
7.08252e-06
7.85078e-06
8.91605e-06
9.81412e-06
1.11656e-05
1.50024e-05
1.75122e-05
1.93647e-05
2.09018e-05
2.2099e-05
2.30543e-05
2.38139e-05
2.44123e-05
2.48895e-05
2.52819e-05
2.51834e-05
2.5093e-05
2.50667e-05
2.5115e-05
2.52329e-05
2.54581e-05
2.57502e-05
2.60713e-05
2.64319e-05
2.68227e-05
2.70202e-05
2.70818e-05
2.71344e-05
2.71821e-05
2.72236e-05
2.72486e-05
2.72636e-05
2.72703e-05
2.72727e-05
2.72655e-05
2.72524e-05
2.72316e-05
2.72123e-05
2.71847e-05
2.71621e-05
2.71318e-05
2.71112e-05
2.70907e-05
2.70814e-05
2.70773e-05
2.71116e-05
2.71155e-05
2.72875e-05
2.71727e-05
2.82137e-05
2.75111e-05
2.11324e-05
1.20597e-05
5.43944e-06
4.23504e-06
4.00851e-06
3.95503e-06
4.31853e-06
5.57852e-06
6.2633e-06
7.0826e-06
7.85088e-06
8.91621e-06
9.81434e-06
1.24051e-05
1.60233e-05
1.83764e-05
2.01144e-05
2.15274e-05
2.2623e-05
2.34863e-05
2.41661e-05
2.41775e-05
2.39387e-05
2.3731e-05
2.35683e-05
2.35092e-05
2.35317e-05
2.3632e-05
2.38159e-05
2.41024e-05
2.44287e-05
2.47977e-05
2.52127e-05
2.56623e-05
2.61218e-05
2.65973e-05
2.70921e-05
2.75985e-05
2.80731e-05
2.81756e-05
2.8269e-05
2.83528e-05
2.84331e-05
2.84984e-05
2.85577e-05
2.86063e-05
2.86567e-05
2.86939e-05
2.87356e-05
2.87639e-05
2.88048e-05
2.8836e-05
2.88846e-05
2.89226e-05
2.90109e-05
2.90425e-05
2.92616e-05
2.91832e-05
3.01235e-05
2.95152e-05
2.43294e-05
1.62873e-05
8.05281e-06
4.99449e-06
4.57232e-06
4.53603e-06
4.55798e-06
5.24788e-06
6.5246e-06
7.43211e-06
8.546e-06
9.7286e-06
1.08025e-05
1.24045e-05
1.60229e-05
1.83761e-05
2.01141e-05
2.15271e-05
2.26227e-05
2.3486e-05
2.41658e-05
2.41773e-05
2.39386e-05
2.3731e-05
2.35683e-05
2.35092e-05
2.35318e-05
2.36322e-05
2.38159e-05
2.41025e-05
2.44289e-05
2.47979e-05
2.52129e-05
2.56625e-05
2.61221e-05
2.65977e-05
2.70925e-05
2.75989e-05
2.80743e-05
2.8177e-05
2.82704e-05
2.83543e-05
2.84347e-05
2.85001e-05
2.85595e-05
2.86082e-05
2.86586e-05
2.86959e-05
2.87376e-05
2.8766e-05
2.8807e-05
2.88381e-05
2.88867e-05
2.89248e-05
2.90131e-05
2.90448e-05
2.92638e-05
2.91855e-05
3.01256e-05
2.95176e-05
2.4331e-05
1.62881e-05
8.05327e-06
4.99459e-06
4.57239e-06
4.53609e-06
4.55806e-06
5.24797e-06
6.5247e-06
7.43224e-06
8.54616e-06
9.72884e-06
1.08029e-05
1.34175e-05
1.67348e-05
1.89012e-05
2.05032e-05
2.17886e-05
2.27819e-05
2.28151e-05
2.25658e-05
2.23009e-05
2.21003e-05
2.19671e-05
2.19521e-05
2.20124e-05
2.21326e-05
2.23102e-05
2.2562e-05
2.28593e-05
2.31805e-05
2.35384e-05
2.3933e-05
2.43549e-05
2.48226e-05
2.53412e-05
2.58936e-05
2.64701e-05
2.70579e-05
2.76231e-05
2.81947e-05
2.87582e-05
2.93323e-05
2.95044e-05
2.96406e-05
2.9763e-05
2.98874e-05
2.99925e-05
3.01022e-05
3.01923e-05
3.02996e-05
3.03852e-05
3.0496e-05
3.05807e-05
3.07255e-05
3.07962e-05
3.10495e-05
3.10372e-05
3.1899e-05
3.13723e-05
2.70834e-05
2.04224e-05
1.2071e-05
6.24208e-06
5.25743e-06
5.08939e-06
5.13864e-06
5.32382e-06
6.24114e-06
7.61223e-06
8.86076e-06
1.03598e-05
1.16177e-05
1.34168e-05
1.67344e-05
1.89009e-05
2.0503e-05
2.17883e-05
2.27816e-05
2.28147e-05
2.25655e-05
2.23007e-05
2.21002e-05
2.19671e-05
2.19521e-05
2.20124e-05
2.21326e-05
2.23103e-05
2.25621e-05
2.28594e-05
2.31807e-05
2.35387e-05
2.39332e-05
2.43552e-05
2.48229e-05
2.53415e-05
2.5894e-05
2.64705e-05
2.70584e-05
2.76237e-05
2.81953e-05
2.8759e-05
2.93331e-05
2.95064e-05
2.96427e-05
2.97651e-05
2.98897e-05
2.99948e-05
3.01045e-05
3.01947e-05
3.0302e-05
3.03877e-05
3.04985e-05
3.05832e-05
3.0728e-05
3.07988e-05
3.1052e-05
3.10398e-05
3.19015e-05
3.1375e-05
2.70853e-05
2.04236e-05
1.20715e-05
6.24229e-06
5.25752e-06
5.08945e-06
5.13871e-06
5.32392e-06
6.24123e-06
7.61237e-06
8.86098e-06
1.03601e-05
1.16182e-05
1.41183e-05
1.70853e-05
1.90497e-05
2.0526e-05
2.11224e-05
2.09541e-05
2.07639e-05
2.05989e-05
2.05323e-05
2.05453e-05
2.06073e-05
2.07349e-05
2.09067e-05
2.11195e-05
2.13749e-05
2.16729e-05
2.19757e-05
2.22997e-05
2.26497e-05
2.30263e-05
2.34268e-05
2.38624e-05
2.43354e-05
2.48372e-05
2.53659e-05
2.5909e-05
2.65056e-05
2.71306e-05
2.77704e-05
2.84174e-05
2.90356e-05
2.96475e-05
3.02441e-05
3.08478e-05
3.11262e-05
3.13098e-05
3.14669e-05
3.16456e-05
3.1789e-05
3.19654e-05
3.2102e-05
3.23046e-05
3.24251e-05
3.2708e-05
3.27694e-05
3.35644e-05
3.30845e-05
2.95254e-05
2.41106e-05
1.64113e-05
8.99139e-06
6.09145e-06
5.73763e-06
5.78496e-06
5.86296e-06
6.2072e-06
7.23328e-06
8.89283e-06
1.06019e-05
1.21987e-05
1.41174e-05
1.70847e-05
1.90493e-05
2.05257e-05
2.11218e-05
2.09536e-05
2.07635e-05
2.05986e-05
2.05321e-05
2.05452e-05
2.06074e-05
2.07349e-05
2.09067e-05
2.11196e-05
2.13749e-05
2.1673e-05
2.19758e-05
2.22999e-05
2.265e-05
2.30266e-05
2.34271e-05
2.38628e-05
2.43358e-05
2.48377e-05
2.53664e-05
2.59095e-05
2.65062e-05
2.71312e-05
2.77711e-05
2.84182e-05
2.90366e-05
2.96486e-05
3.02453e-05
3.08491e-05
3.11288e-05
3.13126e-05
3.14697e-05
3.16484e-05
3.17918e-05
3.19683e-05
3.21049e-05
3.23075e-05
3.24281e-05
3.27109e-05
3.27724e-05
3.35671e-05
3.30875e-05
2.95276e-05
2.41123e-05
1.6412e-05
8.9919e-06
6.0916e-06
5.73771e-06
5.78503e-06
5.86305e-06
6.2073e-06
7.23342e-06
8.89307e-06
1.06023e-05
1.21995e-05
1.43781e-05
1.69941e-05
1.88181e-05
1.88927e-05
1.89098e-05
1.88667e-05
1.89525e-05
1.90825e-05
1.92409e-05
1.94311e-05
1.9666e-05
1.99142e-05
2.01637e-05
2.04295e-05
2.0729e-05
2.10291e-05
2.13408e-05
2.16753e-05
2.20333e-05
2.24149e-05
2.28207e-05
2.32518e-05
2.37061e-05
2.41804e-05
2.46768e-05
2.5188e-05
2.57377e-05
2.63106e-05
2.69079e-05
2.75077e-05
2.81558e-05
2.8828e-05
2.95094e-05
3.02012e-05
3.08544e-05
3.1528e-05
3.21386e-05
3.28756e-05
3.30864e-05
3.33369e-05
3.35311e-05
3.37945e-05
3.39722e-05
3.4289e-05
3.44209e-05
3.52015e-05
3.46872e-05
3.17434e-05
2.72801e-05
2.07679e-05
1.30751e-05
7.52647e-06
6.46068e-06
6.30347e-06
6.49756e-06
6.63565e-06
7.07874e-06
8.34321e-06
1.00187e-05
1.23816e-05
1.43767e-05
1.69934e-05
1.88177e-05
1.8892e-05
1.89092e-05
1.88662e-05
1.89521e-05
1.90823e-05
1.92408e-05
1.9431e-05
1.9666e-05
1.99142e-05
2.01638e-05
2.04295e-05
2.0729e-05
2.10292e-05
2.1341e-05
2.16756e-05
2.20336e-05
2.24153e-05
2.28211e-05
2.32523e-05
2.37066e-05
2.4181e-05
2.46775e-05
2.51887e-05
2.57384e-05
2.63114e-05
2.69087e-05
2.75086e-05
2.81568e-05
2.8829e-05
2.95105e-05
3.02024e-05
3.08558e-05
3.15295e-05
3.21403e-05
3.28777e-05
3.30897e-05
3.33402e-05
3.35344e-05
3.37979e-05
3.39756e-05
3.42923e-05
3.44242e-05
3.52045e-05
3.46905e-05
3.17461e-05
2.7282e-05
2.07691e-05
1.30756e-05
7.52676e-06
6.46079e-06
6.30355e-06
6.49763e-06
6.63575e-06
7.07888e-06
8.34343e-06
1.00192e-05
1.23826e-05
1.40627e-05
1.57205e-05
1.65222e-05
1.67067e-05
1.69955e-05
1.7331e-05
1.76989e-05
1.80257e-05
1.83632e-05
1.86963e-05
1.90101e-05
1.93037e-05
1.9591e-05
1.98977e-05
2.01996e-05
2.05105e-05
2.08429e-05
2.12018e-05
2.15868e-05
2.19973e-05
2.24331e-05
2.2891e-05
2.3366e-05
2.3856e-05
2.43615e-05
2.48807e-05
2.54169e-05
2.59639e-05
2.65285e-05
2.7099e-05
2.77024e-05
2.83281e-05
2.89733e-05
2.96318e-05
3.03156e-05
3.10682e-05
3.1784e-05
3.26455e-05
3.33314e-05
3.43844e-05
3.49266e-05
3.52649e-05
3.55015e-05
3.5859e-05
3.6043e-05
3.68639e-05
3.62898e-05
3.36549e-05
3.00564e-05
2.47484e-05
1.75968e-05
1.09719e-05
7.45211e-06
6.97286e-06
7.01193e-06
7.28008e-06
7.44454e-06
8.04459e-06
9.1644e-06
1.21141e-05
1.40607e-05
1.57196e-05
1.65214e-05
1.6706e-05
1.6995e-05
1.73306e-05
1.76986e-05
1.80255e-05
1.83631e-05
1.86963e-05
1.90101e-05
1.93037e-05
1.9591e-05
1.98978e-05
2.01998e-05
2.05106e-05
2.08431e-05
2.12021e-05
2.15872e-05
2.19978e-05
2.24336e-05
2.28916e-05
2.33666e-05
2.38567e-05
2.43622e-05
2.48816e-05
2.54179e-05
2.59649e-05
2.65296e-05
2.71002e-05
2.77036e-05
2.83294e-05
2.89747e-05
2.96333e-05
3.0317e-05
3.10697e-05
3.17856e-05
3.26472e-05
3.33335e-05
3.43866e-05
3.49304e-05
3.52686e-05
3.55053e-05
3.58626e-05
3.60464e-05
3.68673e-05
3.62931e-05
3.36581e-05
3.00588e-05
2.47501e-05
1.75976e-05
1.09726e-05
7.45232e-06
6.97297e-06
7.01202e-06
7.28019e-06
7.44466e-06
8.04475e-06
9.16482e-06
1.2115e-05
1.36357e-05
1.3766e-05
1.45282e-05
1.51752e-05
1.57925e-05
1.63804e-05
1.68844e-05
1.73571e-05
1.77852e-05
1.81637e-05
1.85016e-05
1.88141e-05
1.9137e-05
1.94454e-05
1.97634e-05
2.01038e-05
2.04722e-05
2.08718e-05
2.13016e-05
2.17599e-05
2.22449e-05
2.2752e-05
2.32752e-05
2.38118e-05
2.43593e-05
2.49179e-05
2.54818e-05
2.60483e-05
2.66205e-05
2.71989e-05
2.77883e-05
2.8388e-05
2.9001e-05
2.96329e-05
3.02836e-05
3.10021e-05
3.17051e-05
3.25553e-05
3.33189e-05
3.45334e-05
3.54324e-05
3.67592e-05
3.70558e-05
3.7458e-05
3.76743e-05
3.85474e-05
3.79501e-05
3.53751e-05
3.24719e-05
2.81862e-05
2.21594e-05
1.49571e-05
9.57917e-06
7.81846e-06
7.67025e-06
7.86511e-06
8.11843e-06
8.3853e-06
8.76875e-06
1.15856e-05
1.36334e-05
1.37652e-05
1.45275e-05
1.51747e-05
1.57921e-05
1.63801e-05
1.68842e-05
1.73571e-05
1.77853e-05
1.81637e-05
1.85017e-05
1.88142e-05
1.91372e-05
1.94457e-05
1.9764e-05
2.01042e-05
2.04726e-05
2.08722e-05
2.1302e-05
2.17605e-05
2.22455e-05
2.27527e-05
2.3276e-05
2.38127e-05
2.43602e-05
2.49189e-05
2.5483e-05
2.60495e-05
2.66218e-05
2.72003e-05
2.77898e-05
2.83897e-05
2.90026e-05
2.96347e-05
3.02854e-05
3.1004e-05
3.17071e-05
3.25575e-05
3.33211e-05
3.45356e-05
3.54349e-05
3.67633e-05
3.70598e-05
3.74618e-05
3.76782e-05
3.85513e-05
3.79538e-05
3.53785e-05
3.24747e-05
2.81882e-05
2.21607e-05
1.49576e-05
9.57961e-06
7.81866e-06
7.67037e-06
7.86524e-06
8.11855e-06
8.38543e-06
8.76906e-06
1.15862e-05
1.20763e-05
1.25994e-05
1.35405e-05
1.44616e-05
1.52241e-05
1.58656e-05
1.64553e-05
1.69676e-05
1.7407e-05
1.77905e-05
1.81372e-05
1.84801e-05
1.8802e-05
1.91306e-05
1.9483e-05
1.9868e-05
2.02893e-05
2.07477e-05
2.12403e-05
2.17637e-05
2.23131e-05
2.2884e-05
2.34705e-05
2.40694e-05
2.46763e-05
2.5291e-05
2.59059e-05
2.65197e-05
2.71308e-05
2.77448e-05
2.83567e-05
2.89702e-05
2.95855e-05
3.0221e-05
3.08614e-05
3.15587e-05
3.22437e-05
3.30859e-05
3.38482e-05
3.5068e-05
3.59899e-05
3.80002e-05
3.86575e-05
3.91114e-05
3.93542e-05
4.02513e-05
3.97022e-05
3.70476e-05
3.4533e-05
3.11529e-05
2.63036e-05
1.9668e-05
1.34118e-05
9.32269e-06
8.46938e-06
8.51367e-06
8.76692e-06
9.14759e-06
9.07994e-06
1.0501e-05
1.20756e-05
1.25989e-05
1.354e-05
1.44612e-05
1.52238e-05
1.58654e-05
1.64553e-05
1.69676e-05
1.74071e-05
1.77906e-05
1.81372e-05
1.84801e-05
1.88021e-05
1.91309e-05
1.94835e-05
1.98689e-05
2.02906e-05
2.07493e-05
2.12422e-05
2.17647e-05
2.23139e-05
2.28849e-05
2.34714e-05
2.40704e-05
2.46774e-05
2.52923e-05
2.59072e-05
2.65211e-05
2.71323e-05
2.77465e-05
2.83585e-05
2.89722e-05
2.95876e-05
3.02232e-05
3.08636e-05
3.15611e-05
3.22461e-05
3.30884e-05
3.38509e-05
3.50707e-05
3.59925e-05
3.80028e-05
3.8662e-05
3.91158e-05
3.93586e-05
4.02558e-05
3.97064e-05
3.70511e-05
3.45363e-05
3.11554e-05
2.63053e-05
1.96689e-05
1.34122e-05
9.32306e-06
8.46957e-06
8.51379e-06
8.76702e-06
9.14771e-06
9.08018e-06
1.05013e-05
1.1636e-05
1.25753e-05
1.34825e-05
1.44171e-05
1.51184e-05
1.57403e-05
1.63195e-05
1.68016e-05
1.7225e-05
1.76106e-05
1.79761e-05
1.83224e-05
1.86738e-05
1.90507e-05
1.94612e-05
1.99122e-05
2.04042e-05
2.09361e-05
2.15032e-05
2.21011e-05
2.27245e-05
2.33682e-05
2.40259e-05
2.46932e-05
2.53656e-05
2.60412e-05
2.67136e-05
2.73822e-05
2.80438e-05
2.87047e-05
2.93572e-05
3.00077e-05
3.06521e-05
3.13144e-05
3.19734e-05
3.2683e-05
3.33781e-05
3.42312e-05
3.50115e-05
3.62472e-05
3.71804e-05
3.92533e-05
4.03527e-05
4.08446e-05
4.1109e-05
4.20087e-05
4.15563e-05
3.88084e-05
3.6364e-05
3.36575e-05