/*--------------------------------*- C++ -*----------------------------------*\
| =========                 |                                                 |
| \\      /  F ield         | OpenFOAM: The Open Source CFD Toolbox           |
|  \\    /   O peration     | Version:  5.x                                   |
|   \\  /    A nd           | Web:      www.OpenFOAM.org                      |
|    \\/     M anipulation  |                                                 |
\*---------------------------------------------------------------------------*/
FoamFile
{
    version     2.0;
    format      ascii;
    class       volScalarField;
    location    "300/surface";
    object      kMean;
}
// * * * * * * * * * * * * * * * * * * * * * * * * * * * * * * * * * * * * * //

dimensions      [0 2 -2 0 0 0 0];

internalField   nonuniform List<scalar> 
7200
(
3.12071e-08
4.5438e-08
7.66598e-08
1.10296e-07
1.54801e-07
1.9966e-07
2.45527e-07
2.91747e-07
3.37166e-07
3.80414e-07
4.1836e-07
4.51351e-07
4.77427e-07
4.98282e-07
5.12544e-07
5.21922e-07
5.26076e-07
5.26674e-07
5.24983e-07
5.21287e-07
5.14936e-07
5.07335e-07
4.98827e-07
4.89926e-07
4.80634e-07
4.71677e-07
4.62923e-07
4.5512e-07
4.47133e-07
4.40813e-07
4.33873e-07
4.29451e-07
4.23907e-07
4.21084e-07
4.17543e-07
4.16009e-07
4.15797e-07
4.14125e-07
4.20022e-07
4.17424e-07
4.34535e-07
4.24195e-07
4.77192e-07
4.42108e-07
5.31196e-07
1.08787e-06
2.88229e-07
4.81819e-08
2.77399e-08
2.84519e-08
2.85372e-08
2.81973e-08
2.75522e-08
2.75383e-08
2.77162e-08
2.81612e-08
2.97144e-08
3.28476e-08
3.70615e-08
3.79146e-08
3.11954e-08
4.54407e-08
7.66603e-08
1.10284e-07
1.54782e-07
1.99641e-07
2.45488e-07
2.91712e-07
3.3714e-07
3.80382e-07
4.18325e-07
4.51322e-07
4.77397e-07
4.98251e-07
5.12514e-07
5.21893e-07
5.26045e-07
5.26649e-07
5.24958e-07
5.21267e-07
5.14926e-07
5.07331e-07
4.98828e-07
4.89931e-07
4.80645e-07
4.7169e-07
4.62938e-07
4.55139e-07
4.47151e-07
4.40838e-07
4.339e-07
4.29477e-07
4.23936e-07
4.21115e-07
4.17574e-07
4.16037e-07
4.15828e-07
4.14159e-07
4.2006e-07
4.17475e-07
4.34631e-07
4.24246e-07
4.77239e-07
4.42149e-07
5.31397e-07
1.0879e-06
2.8823e-07
4.81632e-08
2.7729e-08
2.84495e-08
2.85387e-08
2.81956e-08
2.75476e-08
2.75393e-08
2.77161e-08
2.81654e-08
2.97191e-08
3.28517e-08
3.70686e-08
3.79254e-08
2.91509e-07
7.50937e-07
1.70858e-06
2.72743e-06
4.0682e-06
5.40704e-06
6.77238e-06
8.14369e-06
9.48907e-06
1.07589e-05
1.18757e-05
1.28281e-05
1.35896e-05
1.41891e-05
1.46047e-05
1.48741e-05
1.49943e-05
1.50118e-05
1.49643e-05
1.48572e-05
1.46727e-05
1.44519e-05
1.4205e-05
1.39466e-05
1.36769e-05
1.34171e-05
1.31628e-05
1.29365e-05
1.2704e-05
1.25199e-05
1.2317e-05
1.21885e-05
1.20263e-05
1.19448e-05
1.18413e-05
1.17981e-05
1.17926e-05
1.1746e-05
1.19209e-05
1.18486e-05
1.23535e-05
1.20587e-05
1.36206e-05
1.25918e-05
1.52292e-05
3.122e-05
8.29797e-06
9.75524e-07
1.30706e-07
1.23598e-07
1.31332e-07
1.28007e-07
1.14308e-07
1.1935e-07
1.30024e-07
1.47723e-07
1.97504e-07
2.95192e-07
4.309e-07
4.85514e-07
2.9156e-07
7.51018e-07
1.70851e-06
2.72717e-06
4.06776e-06
5.40651e-06
6.77154e-06
8.14279e-06
9.48831e-06
1.07581e-05
1.18748e-05
1.28273e-05
1.35888e-05
1.41882e-05
1.46039e-05
1.48734e-05
1.49936e-05
1.50111e-05
1.49636e-05
1.48567e-05
1.46724e-05
1.44518e-05
1.42051e-05
1.39469e-05
1.36772e-05
1.34175e-05
1.31633e-05
1.2937e-05
1.27046e-05
1.25206e-05
1.23178e-05
1.21893e-05
1.20271e-05
1.19457e-05
1.18423e-05
1.17991e-05
1.17936e-05
1.17471e-05
1.1922e-05
1.18497e-05
1.23549e-05
1.206e-05
1.3622e-05
1.25931e-05
1.52327e-05
3.1221e-05
8.29734e-06
9.7546e-07
1.30676e-07
1.23571e-07
1.31292e-07
1.27977e-07
1.14263e-07
1.19306e-07
1.30002e-07
1.47749e-07
1.97583e-07
2.95268e-07
4.30951e-07
4.85589e-07
1.90171e-06
5.09576e-06
1.1532e-05
1.79276e-05
2.58623e-05
3.33952e-05
4.08073e-05
4.79226e-05
5.45331e-05
6.05984e-05
6.59554e-05
7.05081e-05
7.42223e-05
7.71475e-05
7.9269e-05
8.0696e-05
8.14426e-05
8.1697e-05
8.16198e-05
8.12349e-05
8.0427e-05
7.94477e-05
7.83114e-05
7.71003e-05
7.58043e-05
7.45412e-05
7.32722e-05
7.21313e-05
7.09324e-05
6.99708e-05
6.88613e-05
6.81859e-05
6.71872e-05
6.67765e-05
6.59918e-05
6.5755e-05
6.54318e-05
6.51467e-05
6.55558e-05
6.51482e-05
6.68822e-05
6.53763e-05
7.16549e-05
6.53815e-05
7.69194e-05
0.000120743
4.20456e-05
7.1852e-06
9.34741e-07
6.5919e-07
7.22286e-07
7.04736e-07
5.95672e-07
6.06817e-07
6.54392e-07
7.62538e-07
1.09998e-06
1.76892e-06
2.73603e-06
3.15121e-06
1.90195e-06
5.0956e-06
1.15311e-05
1.79263e-05
2.58604e-05
3.3393e-05
4.08045e-05
4.79196e-05
5.45302e-05
6.05954e-05
6.59522e-05
7.05053e-05
7.42194e-05
7.71443e-05
7.92659e-05
8.06931e-05
8.144e-05
8.16946e-05
8.16176e-05
8.12334e-05
8.04264e-05
7.94478e-05
7.83121e-05
7.71016e-05
7.58061e-05
7.45433e-05
7.32747e-05
7.2134e-05
7.09355e-05
6.99743e-05
6.88652e-05
6.81899e-05
6.71914e-05
6.67808e-05
6.59963e-05
6.57596e-05
6.54367e-05
6.51517e-05
6.55608e-05
6.51534e-05
6.68876e-05
6.53819e-05
7.16606e-05
6.53871e-05
7.69294e-05
0.000120751
4.20428e-05
7.18486e-06
9.34717e-07
6.59213e-07
7.22304e-07
7.04726e-07
5.95491e-07
6.06487e-07
6.54122e-07
7.62485e-07
1.10024e-06
1.76917e-06
2.73632e-06
3.1516e-06
6.73446e-06
1.72076e-05
3.48939e-05
4.94326e-05
6.54593e-05
7.97988e-05
9.33672e-05
0.000106004
0.000117496
0.000127821
0.000136839
0.000144415
0.000150564
0.000155337
0.000158793
0.000161082
0.000162258
0.00016261
0.000162393
0.000161602
0.000160103
0.000158312
0.000156204
0.000153961
0.000151527
0.00014914
0.000146682
0.000144424
0.000142028
0.00014001
0.000137721
0.000136132
0.000133965
0.000132851
0.000130864
0.000130141
0.000128676
0.000127936
0.000127581
0.000126443
0.000127765
0.000125289
0.000132547
0.000123096
0.000137084
0.000174344
8.91495e-05
2.26716e-05
4.3799e-06
2.24471e-06
2.52957e-06
2.50594e-06
2.06038e-06
1.97171e-06
2.02034e-06
2.32959e-06
3.45364e-06
5.64951e-06
8.6783e-06
9.89852e-06
6.73419e-06
1.72063e-05
3.48914e-05
4.94296e-05
6.54556e-05
7.97947e-05
9.33628e-05
0.000105999
0.000117491
0.000127816
0.000136835
0.000144412
0.00015056
0.000155333
0.000158789
0.000161078
0.000162254
0.000162607
0.000162391
0.000161601
0.000160102
0.000158313
0.000156205
0.000153963
0.00015153
0.000149144
0.000146687
0.000144429
0.000142033
0.000140016
0.000137728
0.000136139
0.000133972
0.000132858
0.000130872
0.000130149
0.000128684
0.000127944
0.000127589
0.000126451
0.000127773
0.000125298
0.000132555
0.000123105
0.000137095
0.000174358
8.91483e-05
2.26706e-05
4.37989e-06
2.24488e-06
2.52978e-06
2.50608e-06
2.0602e-06
1.97129e-06
2.01992e-06
2.32925e-06
3.45395e-06
5.65005e-06
8.67914e-06
9.89965e-06
1.63808e-05
3.71535e-05
6.34906e-05
8.35805e-05
0.000104548
0.000123022
0.000140197
0.000155976
0.00017019
0.000182843
0.000193828
0.000202991
0.000210369
0.000216034
0.000220094
0.000222715
0.000223988
0.000224258
0.000223838
0.000222645
0.000220622
0.000218229
0.000215422
0.000212443
0.000209209
0.000206023
0.000202713
0.000199619
0.000196342
0.000193482
0.000190315
0.0001879
0.000184857
0.000182968
0.000180074
0.000178698
0.000176202
0.000175048
0.000173492
0.000171972
0.000171974
0.000169839
0.000173679
0.000167749
0.000176741
0.000203258
0.000142218
5.05544e-05
1.35108e-05
5.74371e-06
6.30744e-06
6.35669e-06
5.20985e-06
4.7535e-06
4.68913e-06
5.24765e-06
7.68094e-06
1.21544e-05
1.76876e-05
1.99335e-05
1.63794e-05
3.71507e-05
6.34865e-05
8.3576e-05
0.000104543
0.000123016
0.000140192
0.00015597
0.000170184
0.000182838
0.000193824
0.000202987
0.000210364
0.000216029
0.000220089
0.000222711
0.000223984
0.000224255
0.000223835
0.000222645
0.000220622
0.000218231
0.000215425
0.000212447
0.000209214
0.000206029
0.000202719
0.000199626
0.000196349
0.00019349
0.000190324
0.000187909
0.000184866
0.000182977
0.000180084
0.000178708
0.000176213
0.000175058
0.000173502
0.000171983
0.000171985
0.00016985
0.00017369
0.00016776
0.000176752
0.000203272
0.000142224
5.05544e-05
1.35108e-05
5.74415e-06
6.30809e-06
6.35718e-06
5.20984e-06
4.75312e-06
4.68871e-06
5.24713e-06
7.68117e-06
1.21553e-05
1.7689e-05
1.99354e-05
2.926e-05
5.96235e-05
8.97679e-05
0.000113569
0.00013736
0.000158551
0.000178145
0.000196068
0.000212179
0.000226466
0.000238825
0.000249076
0.000257272
0.00026351
0.000267928
0.000270701
0.000271957
0.000272092
0.000271445
0.000269849
0.000267378
0.000264471
0.000261094
0.000257515
0.000253657
0.000249841
0.00024588
0.000242127
0.000238187
0.000234664
0.000230855
0.000227769
0.000224105
0.000221544
0.000218039
0.000216045
0.000212854
0.000211275
0.000208733
0.000207204
0.000205916
0.000204
0.000204927
0.00020211
0.000205461
0.000223489
0.000190804
8.72788e-05
3.24489e-05
1.3442e-05
1.26354e-05
1.25702e-05
1.05521e-05
9.29121e-06
8.92411e-06
9.53827e-06
1.32845e-05
1.97803e-05
2.74349e-05
3.08931e-05
2.92573e-05
5.96194e-05
8.97626e-05
0.000113563
0.000137354
0.000158544
0.000178138
0.000196061
0.000212173
0.000226461
0.000238821
0.000249071
0.000257267
0.000263504
0.000267923
0.000270696
0.000271953
0.000272089
0.000271443
0.000269849
0.000267379
0.000264473
0.000261098
0.00025752
0.000253663
0.000249848
0.000245887
0.000242136
0.000238196
0.000234674
0.000230865
0.000227779
0.000224116
0.000221555
0.00021805
0.000216056
0.000212866
0.000211287
0.000208746
0.000207216
0.000205929
0.000204012
0.000204939
0.000202123
0.000205474
0.000223505
0.000190813
8.72797e-05
3.2449e-05
1.34428e-05
1.26367e-05
1.25712e-05
1.05524e-05
9.29099e-06
8.92388e-06
9.53785e-06
1.32846e-05
1.97814e-05
2.74367e-05
3.08955e-05
4.34514e-05
8.10289e-05
0.000112305
0.000139056
0.000164927
0.000188354
0.000209969
0.000229709
0.000247428
0.000263094
0.00027659
0.000287716
0.000296551
0.000303212
0.000307863
0.000310686
0.000311853
0.000311822
0.000310902
0.00030888
0.000305981
0.000302584
0.000298685
0.000294557
0.000290147
0.00028577
0.000281247
0.000276914
0.000272417
0.000268317
0.000263984
0.000260309
0.000256157
0.000252996
0.000249041
0.000246467
0.000242792
0.000240756
0.000237525
0.000235905
0.000233425
0.000232001
0.000230756
0.000229446
0.000229393
0.000241755
0.000226512
0.000125614
5.99896e-05
2.76983e-05
2.23647e-05
2.10097e-05
1.80347e-05
1.55682e-05
1.46546e-05
1.49961e-05
1.95257e-05
2.73888e-05
3.64733e-05
4.20545e-05
4.34475e-05
8.10237e-05
0.000112299
0.00013905
0.000164921
0.000188347
0.000209961
0.000229701
0.000247421
0.000263089
0.000276585
0.000287711
0.000296545
0.000303206
0.000307857
0.000310681
0.000311849
0.000311819
0.0003109
0.000308881
0.000305983
0.000302588
0.000298689
0.000294563
0.000290155
0.000285778
0.000281256
0.000276924
0.000272427
0.000268328
0.000263996
0.000260321
0.00025617
0.000253008
0.000249054
0.00024648
0.000242806
0.00024077
0.000237539
0.000235919
0.000233439
0.000232015
0.00023077
0.00022946
0.000229407
0.000241772
0.000226524
0.000125617
5.99899e-05
2.76993e-05
2.23668e-05
2.10111e-05
1.80353e-05
1.55682e-05
1.46547e-05
1.49959e-05
1.95258e-05
2.73901e-05
3.64754e-05
4.20575e-05
5.81343e-05
9.98872e-05
0.000131751
0.000161077
0.000188821
0.000214326
0.000237827
0.000259261
0.000278456
0.000295373
0.000309867
0.000321731
0.000331079
0.000338052
0.000342836
0.000345626
0.000346636
0.000346411
0.000345159
0.00034269
0.000339361
0.00033548
0.000331075
0.000326425
0.000321503
0.000316605
0.000311567
0.000306699
0.000301703
0.000297079
0.000292287
0.000288078
0.000283507
0.000279798
0.000275478
0.000272354
0.000268323
0.000265792
0.000262098
0.000260211
0.000256904
0.000255649
0.00025281
0.000252316
0.000249731
0.000259683
0.000249139
0.000167484
9.5604e-05
5.00461e-05
3.6571e-05
3.20155e-05
2.74484e-05
2.34929e-05
2.16608e-05
2.15197e-05
2.60525e-05
3.47243e-05
4.47043e-05
5.26814e-05
5.81295e-05
9.98813e-05
0.000131744
0.00016107
0.000188814
0.000214318
0.000237818
0.000259252
0.000278449
0.000295367
0.000309862
0.000321725
0.000331073
0.000338046
0.00034283
0.000345621
0.000346633
0.000346409
0.000345158
0.000342691
0.000339364
0.000335484
0.000331081
0.000326432
0.000321512
0.000316614
0.000311578
0.00030671
0.000301715
0.000297091
0.0002923
0.000288092
0.000283521
0.000279812
0.000275492
0.000272369
0.000268338
0.000265807
0.000262113
0.000260226
0.00025692
0.000255664
0.000252826
0.000252331
0.000249747
0.000259701
0.000249154
0.000167488
9.56049e-05
5.00472e-05
3.65737e-05
3.20175e-05
2.74494e-05
2.34932e-05
2.16611e-05
2.15198e-05
2.60528e-05
3.47257e-05
4.47069e-05
5.26849e-05
7.27748e-05
0.00011619
0.000148855
0.000180527
0.000210135
0.000237666
0.000263004
0.000286078
0.000306667
0.000324738
0.000340117
0.000352595
0.000362342
0.000369515
0.000374327
0.000376992
0.000377778
0.000377314
0.000375657
0.00037273
0.000368958
0.000364591
0.000359696
0.000354546
0.000349144
0.000343756
0.000338239
0.000332873
0.000327424
0.00032232
0.000317114
0.000312415
0.00030747
0.000303262
0.000298625
0.000294988
0.00029067
0.000287636
0.000283623
0.000281332
0.000277513
0.000276048
0.00027232
0.000271752
0.000267714
0.000275858
0.000266522
0.000203228
0.000133409
8.07033e-05
5.70845e-05
4.64168e-05
3.90358e-05
3.32304e-05
2.9906e-05
2.90494e-05
3.28461e-05
4.17965e-05
5.257e-05
6.21604e-05
7.2769e-05
0.000116183
0.000148848
0.00018052
0.000210127
0.000237658
0.000262995
0.00028607
0.000306659
0.000324732
0.000340111
0.000352589
0.000362335
0.000369509
0.000374321
0.000376988
0.000377775
0.000377312
0.000375657
0.000372732
0.000368962
0.000364597
0.000359703
0.000354554
0.000349153
0.000343767
0.000338251
0.000332886
0.000327437
0.000322334
0.000317128
0.00031243
0.000307486
0.000303278
0.000298641
0.000295005
0.000290687
0.000287652
0.00028364
0.000281349
0.00027753
0.000276064
0.000272337
0.000271768
0.000267731
0.000275876
0.000266538
0.000203236
0.000133411
8.07046e-05
5.70878e-05
4.64196e-05
3.90374e-05
3.32311e-05
2.99066e-05
2.90497e-05
3.28467e-05
4.17982e-05
5.2573e-05
6.21642e-05
8.62421e-05
0.000130399
0.000164162
0.00019805
0.000229571
0.000259111
0.00028626
0.000310937
0.000332842
0.000351959
0.000368095
0.00038105
0.000391059
0.000398298
0.000403012
0.000405446
0.000405934
0.000405172
0.000403033
0.000399631
0.000395404
0.000390553
0.000385187
0.000379565
0.00037372
0.000367883
0.000361927
0.000356107
0.00035025
0.000344718
0.000339138
0.000334
0.000328718
0.000324066
0.000319146
0.000315044
0.000310477
0.000306963
0.000302715
0.000299951
0.000295823
0.000293978
0.000289684
0.000288662
0.00028365
0.00028976
0.000280655
0.000231228
0.000167419
0.000114754
8.3528e-05
6.57192e-05
5.35208e-05
4.51669e-05
3.97457e-05
3.7621e-05
4.0086e-05
4.87049e-05
6.01028e-05
7.10739e-05
8.62358e-05
0.000130392
0.000164155
0.000198043
0.000229564
0.000259103
0.000286251
0.000310928
0.000332834
0.000351953
0.000368088
0.000381043
0.000391052
0.000398292
0.000403006
0.000405442
0.000405932
0.000405171
0.000403034
0.000399634
0.000395409
0.00039056
0.000385195
0.000379575
0.000373731
0.000367895
0.00036194
0.000356121
0.000350265
0.000344733
0.000339154
0.000334016
0.000328735
0.000324083
0.000319163
0.000315062
0.000310495
0.000306981
0.000302733
0.000299969
0.000295841
0.000293996
0.000289702
0.00028868
0.000283667
0.000289778
0.000280673
0.000231239
0.000167423
0.000114756
8.35318e-05
6.57228e-05
5.35231e-05
4.51682e-05
3.97465e-05
3.76216e-05
4.00871e-05
4.87069e-05
6.01062e-05
7.10777e-05
9.84041e-05
0.00014298
0.000178083
0.000214104
0.000247597
0.000279131
0.000308058
0.000334265
0.00035738
0.000377389
0.00039411
0.000407362
0.000417451
0.000424585
0.000429048
0.000431124
0.000431249
0.000430103
0.00042741
0.00042353
0.000418845
0.000413527
0.00040772
0.000401668
0.00039543
0.000389193
0.000382852
0.000376638
0.000370435
0.000364535
0.000358634
0.000353115
0.000347545
0.000342511
0.000337345
0.000332836
0.000328053
0.000324103
0.000319674
0.000316417
0.000312112
0.000309776
0.000305132
0.000303492
0.00029776
0.000301598
0.000292474
0.000252095
0.000198437
0.000147472
0.000114968
9.17544e-05
7.26607e-05
6.00586e-05
5.18294e-05
4.7552e-05
4.81049e-05
5.56434e-05
6.73499e-05
7.93857e-05
9.83975e-05
0.000142972
0.000178076
0.000214097
0.000247589
0.000279122
0.000308049
0.000334256
0.000357371
0.000377381
0.000394103
0.000407354
0.000417444
0.000424578
0.000429043
0.00043112
0.000431247
0.000430103
0.000427412
0.000423534
0.000418851
0.000413535
0.000407729
0.000401679
0.000395442
0.000389207
0.000382867
0.000376654
0.000370451
0.000364552
0.000358651
0.000353132
0.000347563
0.00034253
0.000337363
0.000332855
0.000328072
0.000324122
0.000319693
0.000316436
0.000312131
0.000309795
0.000305151
0.000303511
0.000297778
0.000301616
0.000292492
0.000252108
0.000198444
0.000147475
0.000114972
9.17589e-05
7.2664e-05
6.00606e-05
5.18306e-05
4.7553e-05
4.81063e-05
5.5646e-05
6.73537e-05
7.93898e-05
0.000109319
0.000154323
0.000190956
0.000229044
0.000264549
0.000298036
0.000328663
0.000356273
0.000380422
0.000401096
0.000418164
0.000431473
0.000441407
0.000448215
0.000452237
0.000453803
0.000453516
0.000451842
0.000448557
0.000444204
0.000439076
0.000433332
0.00042714
0.000420723
0.00041416
0.000407597
0.000400947
0.000394422
0.000387953
0.000381767
0.000375611
0.000369789
0.000363994
0.000358656
0.000353293
0.000348446
0.000343488
0.000339162
0.000334597
0.000330868
0.000326479
0.000323526
0.000318802
0.000316442
0.000310181
0.000311732
0.000302668
0.000268295
0.000225514
0.000177009
0.000145362
0.000122006
9.85728e-05
7.95244e-05
6.71021e-05
5.95017e-05
5.74549e-05
6.29538e-05
7.44431e-05
8.71552e-05
0.000109312
0.000154316
0.000190949
0.000229037
0.000264542
0.000298028
0.000328654
0.000356263
0.000380413
0.000401087
0.000418155
0.000431465
0.0004414
0.000448208
0.000452232
0.0004538
0.000453514
0.000451843
0.000448561
0.00044421
0.000439083
0.000433341
0.000427151
0.000420736
0.000414174
0.000407612
0.000400962
0.000394438
0.00038797
0.000381785
0.000375629
0.000369807
0.000364013
0.000358676
0.000353312
0.000348465
0.000343508
0.000339182
0.000334618
0.000330887
0.000326499
0.000323545
0.000318822
0.000316461
0.0003102
0.000311751
0.000302688
0.000268311
0.000225523
0.000177014
0.000145366
0.000122011
9.85772e-05
7.95274e-05
6.7104e-05
5.95032e-05
5.74569e-05
6.29571e-05
7.44474e-05
8.71597e-05
0.000119177
0.000164788
0.00020311
0.000243191
0.000280708
0.000316048
0.000348228
0.000377032
0.000401957
0.000422985
0.000440074
0.000453204
0.000462737
0.000468972
0.000472329
0.000473214
0.000472405
0.000470008
0.000466109
0.000461243
0.000455663
0.000449549
0.000443058
0.000436371
0.000429575
0.000422786
0.000415936
0.000409215
0.000402587
0.000396217
0.0003899
0.000383875
0.000377942
0.000372394
0.000366899
0.000361799
0.000356722
0.000352099
0.000347445
0.000343297
0.000338889
0.000335296
0.000330638
0.000327511
0.000321032
0.000320301
0.000311804
0.000281643
0.00024644
0.000203233
0.000172848
0.000152637
0.000130111
0.000105588
8.69473e-05
7.44498e-05
6.89236e-05
7.12187e-05
8.16401e-05
9.45189e-05
0.00011917
0.00016478
0.000203103
0.000243185
0.000280701
0.00031604
0.000348219
0.000377022
0.000401947
0.000422975
0.000440065
0.000453196
0.00046273
0.000468966
0.000472325
0.000473212
0.000472404
0.000470011
0.000466113
0.00046125
0.000455672
0.000449559
0.00044307
0.000436384
0.00042959
0.000422802
0.000415953
0.000409233
0.000402606
0.000396236
0.000389919
0.000383895
0.000377962
0.000372414
0.00036692
0.000361819
0.000356743
0.000352119
0.000347465
0.000343317
0.000338909
0.000335316
0.000330658
0.000327531
0.000321051
0.00032032
0.000311824
0.000281661
0.000246452
0.00020324
0.000172852
0.000152643
0.000130117
0.000105592
8.69501e-05
7.44519e-05
6.89262e-05
7.12226e-05
8.16451e-05
9.45241e-05
0.00012829
0.000174781
0.000214921
0.000256898
0.000296352
0.000333366
0.000366855
0.000396523
0.000421919
0.00044295
0.000459643
0.000472209
0.000480964
0.000486278
0.000488677
0.000488722
0.000487199
0.000483932
0.000479422
0.000474058
0.000468073
0.000461676
0.000454993
0.000448147
0.000441223
0.00043432
0.000427418
0.000420646
0.000413989
0.000407564
0.000401207
0.00039511
0.000389149
0.000383505
0.000377967
0.000372719
0.000367598
0.000362774
0.000358082
0.000353606
0.000349221
0.000345053
0.000340533
0.00033654
0.000330383
0.000327298
0.000319826
0.000293272
0.000262715
0.000226107
0.000196229
0.000180314
0.000163288
0.000138728
0.000113526
9.41433e-05
8.32021e-05
8.13602e-05
8.94164e-05
0.000101727
0.000128282
0.000174773
0.000214915
0.000256891
0.000296346
0.000333358
0.000366846
0.000396512
0.000421908
0.00044294
0.000459634
0.000472201
0.000480957
0.000486273
0.000488674
0.000488721
0.0004872
0.000483936
0.000479429
0.000474066
0.000468083
0.000461688
0.000455007
0.000448162
0.000441239
0.000434338
0.000427436
0.000420665
0.000414009
0.000407584
0.000401227
0.000395131
0.00038917
0.000383526
0.000377988
0.00037274
0.000367619
0.000362796
0.000358104
0.000353627
0.000349242
0.000345074
0.000340554
0.00033656
0.000330403
0.000327318
0.000319846
0.00029329
0.000262729
0.000226116
0.000196235
0.00018032
0.000163294
0.000138734
0.00011353
9.41463e-05
8.32055e-05
8.13648e-05
8.94221e-05
0.000101733
0.000137149
0.000184827
0.000226874
0.000270603
0.000311822
0.000350198
0.00038468
0.000414752
0.000440099
0.000460545
0.000476199
0.000487363
0.000494389
0.000498042
0.000499009
0.000498079
0.000495492
0.000491492
0.000486554
0.00048094
0.000474852
0.000468443
0.000461811
0.00045506
0.000448257
0.000441491
0.000434783
0.000428185
0.000421694
0.000415392
0.000409179
0.000403168
0.000397309
0.000391702
0.000386232
0.000380965
0.000375894
0.000370987
0.00036632
0.000361636
0.000357307
0.000352695
0.00034833
0.000343515
0.000337861
0.00033281
0.00032637
0.00030368
0.000276445
0.000244626
0.000215595
0.000202301
0.000193208
0.000174999
0.000148431
0.000121245
0.000102024
9.43803e-05
9.85704e-05
0.000109206
0.000137141
0.000184819
0.000226867
0.000270596
0.000311815
0.00035019
0.000384671
0.000414742
0.000440087
0.000460534
0.000476189
0.000487355
0.000494383
0.000498038
0.000499007
0.000498079
0.000495496
0.000491498
0.000486562
0.00048095
0.000474865
0.000468457
0.000461826
0.000455077
0.000448275
0.00044151
0.000434802
0.000428206
0.000421715
0.000415413
0.0004092
0.000403189
0.00039733
0.000391724
0.000386254
0.000380987
0.000375916
0.000371009
0.000366342
0.000361658
0.000357329
0.000352717
0.000348351
0.000343535
0.000337881
0.00033283
0.000326391
0.000303699
0.000276461
0.000244637
0.000215603
0.000202307
0.000193215
0.000175006
0.000148437
0.000121249
0.000102028
9.43857e-05
9.85769e-05
0.000109213
0.000146548
0.000195643
0.000239644
0.000284893
0.000327584
0.000366864
0.000401763
0.000431427
0.000455506
0.000473879
0.000486922
0.000495455
0.000500365
0.00050239
0.000502149
0.000500292
0.000496819
0.000492345
0.000487166
0.000481499
0.000475508
0.000469304
0.000462964
0.000456565
0.000450147
0.00044378
0.000437454
0.000431218
0.000425069
0.000419068
0.000413213
0.000407527
0.000401972
0.000396592
0.000391354
0.000386237
0.000381345
0.000376493
0.000371949
0.000367204
0.000362971
0.000358089
0.000353868
0.000348419
0.000343213
0.000336746
0.000331115
0.00031285
0.000288694
0.000260048
0.000232249
0.00021823
0.000215688
0.000207977
0.000188249
0.000157621
0.000128737
0.000111856
0.000110397
0.000117715
0.000146538
0.000195634
0.000239637
0.000284886
0.000327577
0.000366856
0.000401754
0.000431416
0.000455495
0.000473868
0.000486913
0.000495447
0.00050036
0.000502387
0.000502148
0.000500295
0.000496825
0.000492354
0.000487177
0.000481511
0.000475522
0.00046932
0.000462981
0.000456583
0.000450166
0.0004438
0.000437475
0.000431239
0.00042509
0.00041909
0.000413235
0.000407549
0.000401994
0.000396614
0.000391377
0.00038626
0.000381367
0.000376516
0.000371972
0.000367226
0.000362993
0.000358111
0.000353889
0.00034844
0.000343233
0.000336766
0.000331135
0.00031287
0.000288711
0.000260062
0.000232259
0.000218237
0.000215695
0.000207984
0.000188256
0.000157627
0.000128742
0.000111862
0.000110404
0.000117723
0.000157787
0.000208274
0.000254176
0.000300643
0.000344274
0.000383596
0.000417325
0.00044474
0.000465349
0.000480144
0.000490412
0.0004965
0.000499147
0.00049918
0.000497607
0.000494364
0.000490129
0.000485265
0.000479993
0.000474478
0.000468832
0.000463127
0.000457405
0.000451706
0.000446036
0.000440429
0.000434863
0.000429363
0.000423915
0.000418565
0.000413277
0.000408079
0.000402972
0.00039797
0.000393102
0.000388281
0.000383673
0.000379004
0.000374681
0.000370028
0.000365953
0.000361007
0.000356919
0.000351095
0.000346228
0.000338861
0.000333984
0.000320371
0.000299685
0.000273978
0.000246768
0.000229772
0.000230144
0.000231222
0.000224119
0.000200807
0.000166116
0.000137234
0.000126577
0.000128601
0.000157776
0.000208265
0.000254168
0.000300636
0.000344267
0.000383587
0.000417315
0.000444729
0.000465338
0.000480134
0.000490404
0.000496493
0.000499144
0.000499179
0.000497609
0.00049437
0.000490137
0.000485275
0.000480006
0.000474492
0.000468848
0.000463144
0.000457424
0.000451725
0.000446056
0.00044045
0.000434884
0.000429384
0.000423937
0.000418587
0.000413299
0.000408102
0.000402995
0.000397993
0.000393125
0.000388304
0.000383696
0.000379027
0.000374704
0.00037005
0.000365975
0.000361028
0.00035694
0.000351116
0.000346249
0.000338881
0.000334004
0.000320391
0.000299704
0.000273994
0.00024678
0.00022978
0.000230152
0.000231229
0.000224127
0.000200815
0.000166122
0.000137241
0.000126584
0.00012861
0.000172688
0.000224302
0.000271874
0.000319045
0.000362034
0.000399068
0.00042931
0.000451897
0.000468504
0.000479864
0.000486497
0.000489409
0.00048952
0.00048795
0.000484672
0.000480435
0.000475654
0.000470591
0.000465412
0.000460232
0.000455116
0.000450094
0.000445181
0.000440376
0.000435661
0.000431034
0.000426465
0.000421954
0.000417476
0.000413048
0.00040864
0.000404258
0.000399909
0.000395581
0.000391328
0.000387029
0.000382892
0.000378595
0.000374616
0.000370199
0.000366345
0.0003615
0.000357551
0.000351624
0.000347009
0.000339211
0.000334983
0.000325814
0.00030924
0.000286763
0.000260849
0.000239848
0.000239015
0.000244932
0.000249286
0.000240311
0.000212248
0.000174412
0.000150586
0.000143434
0.000172675
0.000224292
0.000271866
0.000319037
0.000362026
0.000399058
0.000429299
0.000451886
0.000468494
0.000479856
0.00048649
0.000489404
0.000489519
0.000487952
0.000484677
0.000480442
0.000475664
0.000470603
0.000465426
0.000460248
0.000455133
0.000450113
0.0004452
0.000440396
0.000435682
0.000431055
0.000426486
0.000421976
0.000417498
0.000413071
0.000408663
0.000404281
0.000399932
0.000395604
0.000391351
0.000387052
0.000382915
0.000378618
0.000374638
0.000370221
0.000366367
0.000361521
0.000357572
0.000351645
0.00034703
0.000339231
0.000335003
0.000325835
0.00030926
0.000286781
0.000260863
0.000239858
0.000239024
0.000244941
0.000249294
0.000240319
0.000212255
0.00017442
0.000150594
0.000143443
0.000193676
0.000246068
0.000294584
0.000339969
0.00037934
0.000411391
0.000435408
0.00045313
0.000464989
0.000471873
0.000474797
0.000474705
0.000472911
0.000469303
0.000464823
0.000459895
0.000454807
0.000449758
0.000444857
0.000440175
0.000435728
0.000431515
0.000427515
0.0004237
0.000420031
0.000416478
0.000413003
0.000409587
0.000406197
0.000402824
0.000399443
0.000396043
0.000392632
0.000389172
0.000385728
0.000382167
0.000378696
0.000374989
0.000371521
0.000367538
0.000364047
0.000359521
0.000355787
0.000350017
0.000345696
0.000337772
0.00033425
0.000328878
0.000317043
0.000298169
0.000274956
0.000250301
0.000244531
0.000249814
0.000264045
0.000268171
0.000256229
0.000222447
0.000187085
0.00016454
0.000193663
0.000246058
0.000294575
0.00033996
0.00037933
0.00041138
0.000435397
0.00045312
0.00046498
0.000471867
0.000474793
0.000474704
0.000472912
0.000469308
0.00046483
0.000459905
0.000454819
0.000449772
0.000444873
0.000440191
0.000435746
0.000431534
0.000427535
0.00042372
0.000420051
0.000416499
0.000413024
0.000409608
0.000406219
0.000402845
0.000399465
0.000396065
0.000392654
0.000389195
0.00038575
0.000382189
0.000378718
0.000375011
0.000371543
0.00036756
0.000364068
0.000359542
0.000355808
0.000350038
0.000345716
0.000337792
0.000334269
0.000328898
0.000317063
0.000298187
0.000274972
0.000250313
0.000244541
0.000249823
0.000264054
0.00026818
0.000256238
0.000222456
0.000187094
0.00016455
0.000223846
0.000275586
0.000321856
0.000361619
0.000394213
0.000418312
0.000436179
0.000447896
0.000454494
0.000457066
0.000456594
0.00045428
0.000450179
0.000445254
0.000439992
0.000434708
0.000429603
0.000424813
0.000420386
0.00041635
0.000412682
0.000409347
0.000406302
0.000403493
0.000400868
0.000398381
0.000395984
0.000393645
0.000391329
0.000389009
0.000386664
0.000384269
0.000381832
0.000379303
0.000376738
0.000374015
0.000371313
0.000368331
0.000365493
0.00036212
0.000359112
0.000355111
0.000351705
0.000346337
0.000342364
0.000334579
0.000331977
0.000329559
0.000322521
0.000307862
0.000288214
0.000263195
0.000249663
0.000251942
0.000263942
0.000284004
0.000286924
0.000270817
0.000235731
0.000195841
0.000223834
0.000275575
0.000321845
0.000361608
0.000394201
0.0004183
0.000436169
0.000447887
0.000454488
0.000457064
0.000456594
0.000454283
0.000450184
0.000445262
0.000440002
0.00043472
0.000429616
0.000424828
0.000420402
0.000416367
0.0004127
0.000409366
0.000406321
0.000403512
0.000400887
0.000398401
0.000396004
0.000393665
0.00039135
0.00038903
0.000386685
0.000384289
0.000381853
0.000379324
0.000376759
0.000374036
0.000371334
0.000368352
0.000365514
0.000362141
0.000359132
0.000355132
0.000351725
0.000346358
0.000342384
0.000334599
0.000331997
0.000329579
0.00032254
0.000307882
0.000288232
0.00026321
0.000249674
0.000251952
0.000263951
0.000284013
0.000286933
0.000270827
0.00023574
0.00019585
0.000265994
0.000311679
0.000350564
0.000381141
0.000403694
0.000419825
0.000430697
0.000436228
0.000437913
0.000436844
0.000433751
0.00042903
0.000423603
0.00041795
0.000412402
0.000407181
0.000402402
0.000398138
0.000394378
0.000391117
0.000388293
0.000385855
0.00038374
0.000381877
0.000380213
0.000378694
0.000377267
0.000375892
0.000374536
0.000373164
0.000371752
0.000370274
0.000368735
0.000367078
0.000365349
0.000363444
0.000361502
0.000359272
0.000357088
0.000354402
0.000351929
0.000348569
0.000345628
0.000340862
0.000337283
0.000329896
0.000328266
0.000328336
0.000325071
0.000315522