/*--------------------------------*- C++ -*----------------------------------*\
| =========                 |                                                 |
| \\      /  F ield         | OpenFOAM: The Open Source CFD Toolbox           |
|  \\    /   O peration     | Version:  5.x                                   |
|   \\  /    A nd           | Web:      www.OpenFOAM.org                      |
|    \\/     M anipulation  |                                                 |
\*---------------------------------------------------------------------------*/
FoamFile
{
    version     2.0;
    format      ascii;
    class       volScalarField;
    location    "300/surface";
    object      nutMean;
}
// * * * * * * * * * * * * * * * * * * * * * * * * * * * * * * * * * * * * * //

dimensions      [0 2 -1 0 0 0 0];

internalField   nonuniform List<scalar> 
7200
(
1.75723e-11
2.54101e-11
4.25753e-11
6.08335e-11
8.47882e-11
1.08598e-10
1.32615e-10
1.56477e-10
1.79567e-10
2.01171e-10
2.19673e-10
2.35314e-10
2.47135e-10
2.56086e-10
2.61526e-10
2.64393e-10
2.64572e-10
2.62951e-10
2.60199e-10
2.56479e-10
2.51497e-10
2.4596e-10
2.40049e-10
2.34018e-10
2.2787e-10
2.21953e-10
2.16201e-10
2.10957e-10
2.05689e-10
2.01244e-10
1.96568e-10
1.93077e-10
1.89123e-10
1.86417e-10
1.8342e-10
1.81328e-10
1.79824e-10
1.77701e-10
1.78816e-10
1.76309e-10
1.82084e-10
1.76339e-10
1.96787e-10
1.80859e-10
2.15556e-10
4.37887e-10
1.0804e-10
1.53014e-11
9.08556e-12
9.60628e-12
9.92785e-12
1.01032e-11
1.01632e-11
1.04533e-11
1.08221e-11
1.13064e-11
1.22622e-11
1.39275e-11
1.61399e-11
1.69528e-11
1.75657e-11
2.54116e-11
4.25755e-11
6.08264e-11
8.47779e-11
1.08588e-10
1.32594e-10
1.56458e-10
1.79553e-10
2.01154e-10
2.19655e-10
2.35298e-10
2.47119e-10
2.5607e-10
2.61511e-10
2.64378e-10
2.64556e-10
2.62938e-10
2.60186e-10
2.56469e-10
2.51491e-10
2.45958e-10
2.4005e-10
2.3402e-10
2.27876e-10
2.2196e-10
2.16208e-10
2.10965e-10
2.05697e-10
2.01255e-10
1.9658e-10
1.93089e-10
1.89136e-10
1.86431e-10
1.83434e-10
1.81341e-10
1.79838e-10
1.77715e-10
1.78832e-10
1.7633e-10
1.82124e-10
1.7636e-10
1.96807e-10
1.80876e-10
2.15638e-10
4.37898e-10
1.08041e-10
1.52954e-11
9.08198e-12
9.60546e-12
9.92837e-12
1.01026e-11
1.01615e-11
1.04536e-11
1.08221e-11
1.13081e-11
1.22642e-11
1.39292e-11
1.6143e-11
1.69576e-11
8.75524e-10
2.35829e-09
5.42592e-09
8.637e-09
1.28385e-08
1.70308e-08
2.12717e-08
2.55143e-08
2.96639e-08
3.3602e-08
3.70121e-08
3.98717e-08
4.20775e-08
4.37468e-08
4.47848e-08
4.53322e-08
4.53727e-08
4.50676e-08
4.45337e-08
4.38063e-08
4.28332e-08
4.17551e-08
4.05974e-08
3.94206e-08
3.82185e-08
3.70672e-08
3.59424e-08
3.49194e-08
3.38902e-08
3.30182e-08
3.21051e-08
3.14133e-08
3.06329e-08
3.00903e-08
2.94779e-08
2.90547e-08
2.86923e-08
2.82754e-08
2.83508e-08
2.78552e-08
2.87404e-08
2.7588e-08
3.10864e-08
2.77727e-08
3.44071e-08
6.70821e-08
1.62045e-08
1.75098e-09
2.07175e-10
1.99851e-10
2.21272e-10
2.21111e-10
1.98117e-10
2.16346e-10
2.48575e-10
2.97477e-10
4.25353e-10
6.78131e-10
1.04623e-09
1.21849e-09
8.7571e-10
2.35863e-09
5.42585e-09
8.6362e-09
1.28372e-08
1.7029e-08
2.12686e-08
2.55112e-08
2.96614e-08
3.35996e-08
3.70092e-08
3.9869e-08
4.2075e-08
4.37443e-08
4.47823e-08
4.53299e-08
4.53706e-08
4.50656e-08
4.45316e-08
4.38047e-08
4.28325e-08
4.17549e-08
4.05977e-08
3.94213e-08
3.82195e-08
3.70683e-08
3.59438e-08
3.49208e-08
3.38919e-08
3.30201e-08
3.21072e-08
3.14154e-08
3.06351e-08
3.00926e-08
2.94802e-08
2.90571e-08
2.86947e-08
2.82778e-08
2.83534e-08
2.78579e-08
2.87437e-08
2.75908e-08
3.10895e-08
2.77755e-08
3.44151e-08
6.70841e-08
1.62032e-08
1.7509e-09
2.07142e-10
1.99802e-10
2.21189e-10
2.21059e-10
1.98033e-10
2.16234e-10
2.48514e-10
2.97537e-10
4.25584e-10
6.78341e-10
1.04631e-09
1.21864e-09
1.70341e-08
4.43953e-08
1.03602e-07
1.63961e-07
2.41728e-07
3.17361e-07
3.92634e-07
4.65348e-07
5.32932e-07
5.94915e-07
6.48957e-07
6.93883e-07
7.28745e-07
7.54431e-07
7.70432e-07
7.78194e-07
7.77865e-07
7.71663e-07
7.61304e-07
7.47322e-07
7.28883e-07
7.08721e-07
6.86954e-07
6.64692e-07
6.41817e-07
6.19686e-07
5.97824e-07
5.7758e-07
5.57208e-07
5.39391e-07
5.20762e-07
5.06183e-07
4.89303e-07
4.77594e-07
4.63125e-07
4.53383e-07
4.43021e-07
4.33225e-07
4.29062e-07
4.17834e-07
4.24515e-07
4.04347e-07
4.41937e-07
3.91831e-07
4.63529e-07
9.24574e-07
1.7197e-07
2.99392e-08
5.11003e-09
3.85178e-09
4.29759e-09
4.32173e-09
3.7327e-09
3.99102e-09
4.49962e-09
5.35875e-09
7.85151e-09
1.29525e-08
2.1165e-08
2.54908e-08
1.70371e-08
4.43968e-08
1.03596e-07
1.63949e-07
2.41709e-07
3.17336e-07
3.926e-07
4.65313e-07
5.32902e-07
5.94885e-07
6.48923e-07
6.93853e-07
7.28714e-07
7.544e-07
7.70401e-07
7.78166e-07
7.77841e-07
7.71639e-07
7.61281e-07
7.47307e-07
7.28879e-07
7.08723e-07
6.86961e-07
6.64704e-07
6.41834e-07
6.19704e-07
5.97845e-07
5.77603e-07
5.57233e-07
5.39419e-07
5.20792e-07
5.06212e-07
4.89334e-07
4.77625e-07
4.63157e-07
4.53415e-07
4.43053e-07
4.33258e-07
4.29094e-07
4.17867e-07
4.24548e-07
4.04381e-07
4.41972e-07
3.91864e-07
4.63589e-07
9.2463e-07
1.71957e-07
2.99378e-08
5.11008e-09
3.85201e-09
4.2977e-09
4.32165e-09
3.73126e-09
3.98802e-09
4.49757e-09
5.35907e-09
7.85427e-09
1.29541e-08
2.11663e-08
2.54925e-08
1.11484e-07
2.78747e-07
6.28226e-07
9.33235e-07
1.2856e-06
1.60444e-06
1.90213e-06
2.17338e-06
2.41674e-06
2.63137e-06
2.81356e-06
2.95991e-06
3.07075e-06
3.14824e-06
3.19364e-06
3.21089e-06
3.2018e-06
3.17293e-06
3.13012e-06
3.07343e-06
3.00204e-06
2.92433e-06
2.84021e-06
2.75349e-06
2.66377e-06
2.57568e-06
2.48761e-06
2.40405e-06
2.31975e-06
2.243e-06
2.16405e-06
2.09746e-06
2.02426e-06
1.96779e-06
1.90197e-06
1.85305e-06
1.8011e-06
1.7516e-06
1.72382e-06
1.6673e-06
1.66981e-06
1.60079e-06
1.68527e-06
1.55093e-06
1.43051e-06
3.79191e-06
6.00939e-07
1.34848e-07
4.01441e-08
2.92142e-08
3.42639e-08
3.50932e-08
2.94904e-08
2.91404e-08
3.03686e-08
3.50916e-08
5.21464e-08
8.78109e-08
1.4722e-07
1.74924e-07
1.11487e-07
2.78732e-07
6.28184e-07
9.33185e-07
1.28553e-06
1.60436e-06
1.90204e-06
2.17328e-06
2.41665e-06
2.63128e-06
2.81347e-06
2.95983e-06
3.07066e-06
3.14815e-06
3.19355e-06
3.21081e-06
3.20173e-06
3.17287e-06
3.13006e-06
3.0734e-06
3.00203e-06
2.92434e-06
2.84024e-06
2.75354e-06
2.66383e-06
2.57574e-06
2.48768e-06
2.40413e-06
2.31983e-06
2.24309e-06
2.16415e-06
2.09756e-06
2.02436e-06
1.9679e-06
1.90208e-06
1.85316e-06
1.80121e-06
1.7517e-06
1.72392e-06
1.66741e-06
1.66991e-06
1.6009e-06
1.68537e-06
1.55104e-06
1.43068e-06
3.7922e-06
6.00928e-07
1.34841e-07
4.01442e-08
2.92167e-08
3.42668e-08
3.50949e-08
2.94871e-08
2.91347e-08
3.03651e-08
3.50905e-08
5.21521e-08
8.78152e-08
1.47227e-07
1.74936e-07
3.95146e-07
9.49121e-07
1.86432e-06
2.57664e-06
3.32148e-06
3.96106e-06
4.53041e-06
5.03772e-06
5.4769e-06
5.85664e-06
6.17218e-06
6.42223e-06
6.60815e-06
6.73497e-06
6.80806e-06
6.83168e-06
6.81203e-06
6.75816e-06
6.68139e-06
6.57831e-06
6.45069e-06
6.31098e-06
6.15917e-06
6.00116e-06
5.83671e-06
5.6729e-06
5.50809e-06
5.34826e-06
5.18707e-06
5.0354e-06
4.88178e-06
4.74437e-06
4.59992e-06
4.47759e-06
4.34566e-06
4.23592e-06
4.12659e-06
4.01983e-06
3.94756e-06
3.8334e-06
3.81097e-06
3.69754e-06
3.78308e-06
3.64088e-06
3.82201e-06
6.55376e-06
1.69676e-06
3.79821e-07
1.35317e-07
1.134e-07
1.5403e-07
1.64778e-07
1.37726e-07
1.27035e-07
1.23515e-07
1.34015e-07
1.95216e-07
3.24343e-07
5.15947e-07
5.86577e-07
3.95139e-07
9.49065e-07
1.86422e-06
2.57653e-06
3.32134e-06
3.96089e-06
4.53023e-06
5.03754e-06
5.47673e-06
5.85648e-06
6.17204e-06
6.4221e-06
6.608e-06
6.7348e-06
6.8079e-06
6.83154e-06
6.81191e-06
6.75805e-06
6.68129e-06
6.57827e-06
6.45068e-06
6.31101e-06
6.15923e-06
6.00125e-06
5.83682e-06
5.67302e-06
5.50823e-06
5.34842e-06
5.18724e-06
5.03558e-06
4.88197e-06
4.74457e-06
4.60013e-06
4.4778e-06
4.34588e-06
4.23613e-06
4.12681e-06
4.02005e-06
3.94778e-06
3.83362e-06
3.81119e-06
3.69776e-06
3.78329e-06
3.6411e-06
3.82254e-06
6.55417e-06
1.69683e-06
3.79819e-07
1.35316e-07
1.13409e-07
1.54047e-07
1.64793e-07
1.37727e-07
1.27031e-07
1.23513e-07
1.34011e-07
1.95216e-07
3.24349e-07
5.15971e-07
5.86609e-07
9.33125e-07
2.1709e-06
3.68413e-06
4.81899e-06
5.91419e-06
6.84313e-06
7.64841e-06
8.35465e-06
8.95604e-06
9.47009e-06
9.89225e-06
1.02245e-05
1.04695e-05
1.06369e-05
1.07338e-05
1.07666e-05
1.07441e-05
1.06777e-05
1.05847e-05
1.04528e-05
1.02903e-05
1.01101e-05
9.91332e-06
9.70654e-06
9.49002e-06
9.27209e-06
9.0516e-06
8.8346e-06
8.61545e-06
8.40516e-06
8.19378e-06
7.99789e-06
7.79707e-06
7.61741e-06
7.43197e-06
7.26814e-06
7.10868e-06
6.95523e-06
6.83252e-06
6.68562e-06
6.62484e-06
6.487e-06
6.55239e-06
6.44625e-06
6.74059e-06
9.47755e-06
4.25406e-06
8.19889e-07
3.36087e-07
2.54522e-07
4.24928e-07
5.06459e-07
4.44604e-07
3.93323e-07
3.63052e-07
3.66922e-07
5.04306e-07
7.90016e-07
1.1622e-06
1.25639e-06
9.3308e-07
2.1708e-06
3.68397e-06
4.8188e-06
5.91397e-06
6.84286e-06
7.64813e-06
8.35437e-06
8.95579e-06
9.46987e-06
9.89206e-06
1.02243e-05
1.04693e-05
1.06367e-05
1.07336e-05
1.07664e-05
1.0744e-05
1.06775e-05
1.05846e-05
1.04527e-05
1.02903e-05
1.01101e-05
9.91341e-06
9.70666e-06
9.49018e-06
9.27228e-06
9.05182e-06
8.83484e-06
8.61572e-06
8.40544e-06
8.19409e-06
7.9982e-06
7.7974e-06
7.61774e-06
7.43232e-06
7.26848e-06
7.10904e-06
6.95558e-06
6.83288e-06
6.68597e-06
6.62519e-06
6.48735e-06
6.55275e-06
6.44659e-06
6.74095e-06
9.47816e-06
4.25427e-06
8.19893e-07
3.36084e-07
2.54536e-07
4.24971e-07
5.06505e-07
4.44624e-07
3.93331e-07
3.63056e-07
3.66917e-07
5.04298e-07
7.90015e-07
1.16222e-06
1.25641e-06
1.75177e-06
3.84474e-06
5.79377e-06
7.28434e-06
8.66027e-06
9.80577e-06
1.07866e-05
1.16364e-05
1.23532e-05
1.29588e-05
1.34535e-05
1.38398e-05
1.4125e-05
1.43213e-05
1.44376e-05
1.44821e-05
1.4464e-05
1.43997e-05
1.4306e-05
1.41659e-05
1.39951e-05
1.38003e-05
1.35875e-05
1.33605e-05
1.31221e-05
1.28792e-05
1.26327e-05
1.23868e-05
1.2138e-05
1.18961e-05
1.16538e-05
1.14239e-05
1.11912e-05
1.09767e-05
1.07587e-05
1.05629e-05
1.03678e-05
1.01918e-05
1.00272e-05
9.87474e-06
9.76692e-06
9.64889e-06
9.67202e-06
9.6116e-06
9.85636e-06
1.23637e-05
8.7704e-06
1.53e-06
6.76955e-07
4.47526e-07
7.3115e-07
1.04908e-06
1.0308e-06
9.15964e-07
8.28898e-07
7.90657e-07
1.00785e-06
1.46133e-06
1.99829e-06
2.12896e-06
1.75168e-06
3.84457e-06
5.79356e-06
7.28408e-06
8.65999e-06
9.80544e-06
1.07863e-05
1.1636e-05
1.23529e-05
1.29585e-05
1.34533e-05
1.38396e-05
1.41247e-05
1.4321e-05
1.44374e-05
1.44819e-05
1.44638e-05
1.43995e-05
1.43059e-05
1.41659e-05
1.39951e-05
1.38004e-05
1.35876e-05
1.33606e-05
1.31223e-05
1.28795e-05
1.2633e-05
1.23871e-05
1.21384e-05
1.18965e-05
1.16542e-05
1.14243e-05
1.11917e-05
1.09772e-05
1.07592e-05
1.05634e-05
1.03683e-05
1.01923e-05
1.00277e-05
9.87524e-06
9.76744e-06
9.6494e-06
9.67254e-06
9.6121e-06
9.85688e-06
1.23645e-05
8.77081e-06
1.53002e-06
6.76953e-07
4.47537e-07
7.31211e-07
1.04916e-06
1.03086e-06
9.15992e-07
8.28915e-07
7.9065e-07
1.00784e-06
1.46132e-06
1.99828e-06
2.12892e-06
2.86927e-06
5.72761e-06
7.96964e-06
9.74156e-06
1.13071e-05
1.25958e-05
1.36908e-05
1.46261e-05
1.54081e-05
1.60596e-05
1.65896e-05
1.70003e-05
1.73055e-05
1.75189e-05
1.76508e-05
1.77097e-05
1.77044e-05
1.76574e-05
1.75772e-05
1.74489e-05
1.72898e-05
1.71047e-05
1.69024e-05
1.66816e-05
1.64492e-05
1.62097e-05
1.59651e-05
1.57185e-05
1.54679e-05
1.52224e-05
1.49752e-05
1.47377e-05
1.44972e-05
1.42732e-05
1.4044e-05
1.38407e-05
1.36283e-05
1.34509e-05
1.32628e-05
1.3122e-05
1.29795e-05
1.28909e-05
1.28614e-05
1.28577e-05
1.30102e-05
1.5063e-05
1.28944e-05
2.87386e-06
1.21772e-06
7.43307e-07
8.88731e-07
1.52569e-06
1.76569e-06
1.67136e-06
1.53966e-06
1.43303e-06
1.68817e-06
2.27199e-06
2.93496e-06
3.14766e-06
2.86913e-06
5.72738e-06
7.96938e-06
9.74128e-06
1.13067e-05
1.25954e-05
1.36904e-05
1.46256e-05
1.54078e-05
1.60593e-05
1.65893e-05
1.7e-05
1.73051e-05
1.75185e-05
1.76504e-05
1.77094e-05
1.77042e-05
1.76572e-05
1.75771e-05
1.74489e-05
1.72898e-05
1.71048e-05
1.69026e-05
1.66818e-05
1.64495e-05
1.621e-05
1.59656e-05
1.57189e-05
1.54684e-05
1.52229e-05
1.49758e-05
1.47383e-05
1.44978e-05
1.42738e-05
1.40446e-05
1.38413e-05
1.36289e-05
1.34516e-05
1.32634e-05
1.31227e-05
1.29802e-05
1.28916e-05
1.28621e-05
1.28584e-05
1.30109e-05
1.5064e-05
1.2895e-05
2.87393e-06
1.21773e-06
7.43316e-07
8.88778e-07
1.52578e-06
1.76578e-06
1.67142e-06
1.5397e-06
1.43303e-06
1.68816e-06
2.27197e-06
2.93494e-06
3.14759e-06
4.24259e-06
7.63543e-06
1.01012e-05
1.20345e-05
1.37137e-05
1.50802e-05
1.62295e-05
1.71932e-05
1.79898e-05
1.86459e-05
1.91778e-05
1.95882e-05
1.98963e-05
2.01164e-05
2.026e-05
2.03348e-05
2.03489e-05
2.03307e-05
2.02787e-05
2.01818e-05
2.00555e-05
1.99022e-05
1.97291e-05
1.95367e-05
1.93336e-05
1.91205e-05
1.89017e-05
1.86784e-05
1.84505e-05
1.8224e-05
1.79966e-05
1.77733e-05
1.75491e-05
1.73352e-05
1.71195e-05
1.69242e-05
1.67207e-05
1.65513e-05
1.63674e-05
1.62364e-05
1.60901e-05
1.60144e-05
1.59683e-05
1.59811e-05
1.60702e-05
1.76946e-05
1.63965e-05
5.04635e-06
1.96672e-06
1.22096e-06
1.19337e-06
1.69926e-06
2.33305e-06
2.49491e-06
2.40662e-06
2.28104e-06
2.50423e-06
3.1659e-06
3.9331e-06
4.23963e-06
4.24237e-06
7.63515e-06
1.01009e-05
1.20342e-05
1.37133e-05
1.50798e-05
1.62291e-05
1.71927e-05
1.79894e-05
1.86456e-05
1.91776e-05
1.95879e-05
1.98959e-05
2.01161e-05
2.02597e-05
2.03345e-05
2.03487e-05
2.03305e-05
2.02786e-05
2.01818e-05
2.00556e-05
1.99024e-05
1.97294e-05
1.9537e-05
1.9334e-05
1.91209e-05
1.89022e-05
1.8679e-05
1.84511e-05
1.82246e-05
1.79973e-05
1.7774e-05
1.75499e-05
1.7336e-05
1.71203e-05
1.69249e-05
1.67215e-05
1.65521e-05
1.63683e-05
1.62372e-05
1.60909e-05
1.60152e-05
1.59691e-05
1.5982e-05
1.60711e-05
1.76957e-05
1.63974e-05
5.04652e-06
1.96674e-06
1.22097e-06
1.19342e-06
1.69932e-06
2.33315e-06
2.49499e-06
2.40667e-06
2.28104e-06
2.50422e-06
3.1659e-06
3.93308e-06
4.23956e-06
5.74795e-06
9.46385e-06
1.2086e-05
1.40806e-05
1.58047e-05
1.71882e-05
1.83348e-05
1.92799e-05
2.00519e-05
2.06814e-05
2.11911e-05
2.15843e-05
2.18834e-05
2.21028e-05
2.22556e-05
2.2347e-05
2.23848e-05
2.24023e-05
2.23896e-05
2.23347e-05
2.22549e-05
2.21508e-05
2.20262e-05
2.18832e-05
2.17259e-05
2.15575e-05
2.13836e-05
2.12027e-05
2.1016e-05
2.08286e-05
2.06386e-05
2.04498e-05
2.02592e-05
2.00753e-05
1.98898e-05
1.97186e-05
1.95438e-05
1.93906e-05
1.92376e-05
1.9113e-05
1.89967e-05
1.89269e-05
1.88881e-05
1.89052e-05
1.89405e-05
2.02962e-05
1.93989e-05
8.41457e-06
2.75949e-06
1.83518e-06
1.54654e-06
1.70673e-06
2.6156e-06
3.10982e-06
3.27579e-06
3.2501e-06
3.4206e-06
4.10325e-06
4.95688e-06
5.39726e-06
5.74766e-06
9.46352e-06
1.20857e-05
1.40803e-05
1.58043e-05
1.71878e-05
1.83344e-05
1.92795e-05
2.00516e-05
2.06812e-05
2.11909e-05
2.1584e-05
2.18831e-05
2.21025e-05
2.22553e-05
2.23467e-05
2.23846e-05
2.24022e-05
2.23896e-05
2.23348e-05
2.2255e-05
2.2151e-05
2.20266e-05
2.18836e-05
2.17264e-05
2.1558e-05
2.13842e-05
2.12034e-05
2.10168e-05
2.08294e-05
2.06395e-05
2.04507e-05
2.02602e-05
2.00763e-05
1.98908e-05
1.97196e-05
1.95449e-05
1.93916e-05
1.92386e-05
1.91141e-05
1.89977e-05
1.8928e-05
1.88892e-05
1.89063e-05
1.89416e-05
2.02975e-05
1.94001e-05
8.41493e-06
2.75957e-06
1.8352e-06
1.54659e-06
1.70679e-06
2.6157e-06
3.10991e-06
3.27585e-06
3.25011e-06
3.4206e-06
4.10327e-06
4.95689e-06
5.39724e-06
7.29024e-06
1.11578e-05
1.3848e-05
1.58337e-05
1.75404e-05
1.88879e-05
1.99948e-05
2.08985e-05
2.16298e-05
2.22216e-05
2.27004e-05
2.30674e-05
2.33514e-05
2.35667e-05
2.37243e-05
2.3827e-05
2.38846e-05
2.39394e-05
2.39596e-05
2.39463e-05
2.39207e-05
2.38748e-05
2.38092e-05
2.37276e-05
2.36316e-05
2.35248e-05
2.34091e-05
2.32845e-05
2.31537e-05
2.302e-05
2.28815e-05
2.2742e-05
2.25985e-05
2.24598e-05
2.23178e-05
2.21864e-05
2.20516e-05
2.19316e-05
2.18167e-05
2.17177e-05
2.16363e-05
2.1585e-05
2.15601e-05
2.15973e-05
2.15772e-05
2.27796e-05
2.2016e-05
1.23693e-05
4.16512e-06
2.48205e-06
2.1174e-06
2.01981e-06
2.46632e-06
3.44182e-06
3.93409e-06
4.19013e-06
4.39274e-06
5.05769e-06
5.97948e-06
6.5724e-06
7.2899e-06
1.11574e-05
1.38477e-05
1.58334e-05
1.754e-05
1.88876e-05
1.99944e-05
2.08981e-05
2.16294e-05
2.22214e-05
2.27002e-05
2.30672e-05
2.33511e-05
2.35665e-05
2.37241e-05
2.38268e-05
2.38845e-05
2.39394e-05
2.39597e-05
2.39464e-05
2.39209e-05
2.38751e-05
2.38096e-05
2.37281e-05
2.36322e-05
2.35254e-05
2.34099e-05
2.32853e-05
2.31546e-05
2.30209e-05
2.28825e-05
2.27431e-05
2.25996e-05
2.2461e-05
2.2319e-05
2.21876e-05
2.20529e-05
2.19329e-05
2.1818e-05
2.1719e-05
2.16376e-05
2.15863e-05
2.15615e-05
2.15986e-05
2.15785e-05
2.27811e-05
2.20174e-05
1.23699e-05
4.16533e-06
2.48209e-06
2.11746e-06
2.01986e-06
2.4664e-06
3.44191e-06
3.93416e-06
4.19016e-06
4.39276e-06
5.05773e-06
5.97953e-06
6.57245e-06
8.78001e-06
1.26927e-05
1.53313e-05
1.72673e-05
1.89064e-05
2.01921e-05
2.12329e-05
2.20704e-05
2.27394e-05
2.32763e-05
2.37125e-05
2.40466e-05
2.43124e-05
2.45236e-05
2.46895e-05
2.4805e-05
2.49002e-05
2.50001e-05
2.50634e-05
2.51056e-05
2.51337e-05
2.51423e-05
2.51345e-05
2.51212e-05
2.50946e-05
2.50601e-05
2.50126e-05
2.49543e-05
2.48891e-05
2.48191e-05
2.47431e-05
2.46631e-05
2.45772e-05
2.44943e-05
2.44059e-05
2.43249e-05
2.42394e-05
2.41645e-05
2.40948e-05
2.40354e-05
2.39915e-05
2.39789e-05
2.39643e-05
2.40673e-05
2.39791e-05
2.50894e-05
2.43575e-05
1.64108e-05
7.1387e-06
3.21746e-06
2.63486e-06
2.51041e-06
2.53851e-06
3.49012e-06
4.30509e-06
4.90545e-06
5.33121e-06
5.99448e-06
6.97756e-06
7.72307e-06
8.77961e-06
1.26923e-05
1.5331e-05
1.7267e-05
1.89061e-05
2.01917e-05
2.12325e-05
2.20701e-05
2.27391e-05
2.3276e-05
2.37123e-05
2.40464e-05
2.43123e-05
2.45234e-05
2.46894e-05
2.48049e-05
2.49002e-05
2.50002e-05
2.50636e-05
2.51059e-05
2.51341e-05
2.51428e-05
2.51351e-05
2.51218e-05
2.50954e-05
2.50609e-05
2.50135e-05
2.49553e-05
2.48901e-05
2.48203e-05
2.47443e-05
2.46644e-05
2.45785e-05
2.44957e-05
2.44073e-05
2.43264e-05
2.42409e-05
2.4166e-05
2.40963e-05
2.4037e-05
2.3993e-05
2.39805e-05
2.39659e-05
2.4069e-05
2.39807e-05
2.50911e-05
2.43592e-05
1.64117e-05
7.13926e-06
3.21753e-06
2.6349e-06
2.51046e-06
2.53857e-06
3.4902e-06
4.30518e-06
4.90551e-06
5.33125e-06
5.99455e-06
6.97766e-06
7.7232e-06
1.01661e-05
1.40028e-05
1.65125e-05
1.8365e-05
1.99021e-05
2.10993e-05
2.20546e-05
2.28142e-05
2.34126e-05
2.38897e-05
2.4282e-05
2.41834e-05
2.4093e-05
2.40667e-05
2.41148e-05
2.42328e-05
2.4458e-05
2.47501e-05
2.50712e-05
2.54317e-05
2.58225e-05
2.60196e-05
2.60811e-05
2.61336e-05
2.61812e-05
2.62226e-05
2.62475e-05
2.62624e-05
2.6269e-05
2.62714e-05
2.62641e-05
2.62509e-05
2.623e-05
2.62107e-05
2.6183e-05
2.61603e-05
2.613e-05
2.61094e-05
2.60889e-05
2.60795e-05
2.60754e-05
2.61097e-05
2.61135e-05
2.62856e-05
2.61707e-05
2.72117e-05
2.65091e-05
2.01311e-05
1.10592e-05
4.43926e-06
3.23498e-06
3.00845e-06
2.95496e-06
3.31844e-06
4.5784e-06
5.26321e-06
6.08252e-06
6.85078e-06
7.91605e-06
8.81412e-06
1.01656e-05
1.40024e-05
1.65122e-05
1.83647e-05
1.99018e-05
2.1099e-05
2.20543e-05
2.28139e-05
2.34123e-05
2.38895e-05
2.42819e-05
2.41834e-05
2.4093e-05
2.40667e-05
2.4115e-05
2.42329e-05
2.44581e-05
2.47502e-05
2.50713e-05
2.54319e-05
2.58227e-05
2.60202e-05
2.60818e-05
2.61344e-05
2.61821e-05
2.62236e-05
2.62486e-05
2.62636e-05
2.62703e-05
2.62727e-05
2.62655e-05
2.62524e-05
2.62316e-05
2.62123e-05
2.61847e-05
2.61621e-05
2.61318e-05
2.61112e-05
2.60907e-05
2.60814e-05
2.60773e-05
2.61116e-05
2.61155e-05
2.62875e-05
2.61727e-05
2.72137e-05
2.65111e-05
2.01324e-05
1.10597e-05
4.43944e-06
3.23504e-06
3.00851e-06
2.95503e-06
3.31853e-06
4.57852e-06
5.2633e-06
6.0826e-06
6.85088e-06
7.91621e-06
8.81434e-06
1.14051e-05
1.50233e-05
1.73764e-05
1.91144e-05
2.05274e-05
2.1623e-05
2.24863e-05
2.31661e-05
2.31775e-05
2.29387e-05
2.2731e-05
2.25683e-05
2.25092e-05
2.25317e-05
2.2632e-05
2.28159e-05
2.31024e-05
2.34287e-05
2.37977e-05
2.42127e-05
2.46623e-05
2.51218e-05
2.55973e-05
2.60921e-05
2.65985e-05
2.70731e-05
2.71756e-05
2.7269e-05
2.73528e-05
2.74331e-05
2.74984e-05
2.75577e-05
2.76063e-05
2.76567e-05
2.76939e-05
2.77356e-05
2.77639e-05
2.78048e-05
2.7836e-05
2.78846e-05
2.79226e-05
2.80109e-05
2.80425e-05
2.82616e-05
2.81832e-05
2.91235e-05
2.85152e-05
2.33294e-05
1.52873e-05
7.05281e-06
3.99449e-06
3.57232e-06
3.53603e-06
3.55798e-06
4.24788e-06
5.5246e-06
6.43211e-06
7.546e-06
8.7286e-06
9.8025e-06
1.14045e-05
1.50229e-05
1.73761e-05
1.91141e-05
2.05271e-05
2.16227e-05
2.2486e-05
2.31658e-05
2.31773e-05
2.29386e-05
2.2731e-05
2.25683e-05
2.25092e-05
2.25318e-05
2.26322e-05
2.28159e-05
2.31025e-05
2.34289e-05
2.37979e-05
2.42129e-05
2.46625e-05
2.51221e-05
2.55977e-05
2.60925e-05
2.65989e-05
2.70743e-05
2.7177e-05
2.72704e-05
2.73543e-05
2.74347e-05
2.75001e-05
2.75595e-05
2.76082e-05
2.76586e-05
2.76959e-05
2.77376e-05
2.7766e-05
2.7807e-05
2.78381e-05
2.78867e-05
2.79248e-05
2.80131e-05
2.80448e-05
2.82638e-05
2.81855e-05
2.91256e-05
2.85176e-05
2.3331e-05
1.52881e-05
7.05327e-06
3.99459e-06
3.57239e-06
3.53609e-06
3.55806e-06
4.24797e-06
5.5247e-06
6.43224e-06
7.54616e-06
8.72884e-06
9.80286e-06
1.24175e-05
1.57348e-05
1.79012e-05
1.95032e-05
2.07886e-05
2.17819e-05
2.18151e-05
2.15658e-05
2.13009e-05
2.11003e-05
2.09671e-05
2.09521e-05
2.10124e-05
2.11326e-05
2.13102e-05
2.1562e-05
2.18593e-05
2.21805e-05
2.25384e-05
2.2933e-05
2.33549e-05
2.38226e-05
2.43412e-05
2.48936e-05
2.54701e-05
2.60579e-05
2.66231e-05
2.71947e-05
2.77582e-05
2.83323e-05
2.85044e-05
2.86406e-05
2.8763e-05
2.88874e-05
2.89925e-05
2.91022e-05
2.91923e-05
2.92996e-05
2.93852e-05
2.9496e-05
2.95807e-05
2.97255e-05
2.97962e-05
3.00495e-05
3.00372e-05
3.0899e-05
3.03723e-05
2.60834e-05
1.94224e-05
1.1071e-05
5.24208e-06
4.25743e-06
4.08939e-06
4.13864e-06
4.32382e-06
5.24114e-06
6.61223e-06
7.86076e-06
9.35982e-06
1.06177e-05
1.24168e-05
1.57344e-05
1.79009e-05
1.9503e-05
2.07883e-05
2.17816e-05
2.18147e-05
2.15655e-05
2.13007e-05
2.11002e-05
2.09671e-05
2.09521e-05
2.10124e-05
2.11326e-05
2.13103e-05
2.15621e-05
2.18594e-05
2.21807e-05
2.25387e-05
2.29332e-05
2.33552e-05
2.38229e-05
2.43415e-05
2.4894e-05
2.54705e-05
2.60584e-05
2.66237e-05
2.71953e-05
2.7759e-05
2.83331e-05
2.85064e-05
2.86427e-05
2.87651e-05
2.88897e-05
2.89948e-05
2.91045e-05
2.91947e-05
2.9302e-05
2.93877e-05
2.94985e-05
2.95832e-05
2.9728e-05
2.97988e-05
3.0052e-05
3.00398e-05
3.09015e-05
3.0375e-05
2.60853e-05
1.94236e-05
1.10715e-05
5.24229e-06
4.25752e-06
4.08945e-06
4.13871e-06
4.32392e-06
5.24123e-06
6.61237e-06
7.86098e-06
9.36015e-06
1.06182e-05
1.31183e-05
1.60853e-05
1.80497e-05
1.9526e-05
2.01224e-05
1.99541e-05
1.97639e-05
1.95989e-05
1.95323e-05
1.95453e-05
1.96073e-05
1.97349e-05
1.99067e-05
2.01195e-05
2.03749e-05
2.06729e-05
2.09757e-05
2.12997e-05
2.16497e-05
2.20263e-05
2.24268e-05
2.28624e-05
2.33354e-05
2.38372e-05
2.43659e-05
2.4909e-05
2.55056e-05
2.61306e-05
2.67704e-05
2.74174e-05
2.80356e-05
2.86475e-05
2.92441e-05
2.98478e-05
3.01262e-05
3.03098e-05
3.04669e-05
3.06456e-05
3.0789e-05
3.09654e-05
3.1102e-05
3.13046e-05
3.14251e-05
3.1708e-05
3.17694e-05
3.25644e-05
3.20845e-05
2.85254e-05
2.31106e-05
1.54113e-05
7.99139e-06
5.09145e-06
4.73763e-06
4.78496e-06
4.86296e-06
5.2072e-06
6.23328e-06
7.89283e-06
9.60188e-06
1.11987e-05
1.31174e-05
1.60847e-05
1.80493e-05
1.95257e-05
2.01218e-05
1.99536e-05
1.97635e-05
1.95986e-05
1.95321e-05
1.95452e-05
1.96074e-05
1.97349e-05
1.99067e-05
2.01196e-05
2.03749e-05
2.0673e-05
2.09758e-05
2.12999e-05
2.165e-05
2.20266e-05
2.24271e-05
2.28628e-05
2.33358e-05
2.38377e-05
2.43664e-05
2.49095e-05
2.55062e-05
2.61312e-05
2.67711e-05
2.74182e-05
2.80366e-05
2.86486e-05
2.92453e-05
2.98491e-05
3.01288e-05
3.03126e-05
3.04697e-05
3.06484e-05
3.07918e-05
3.09683e-05
3.11049e-05
3.13075e-05
3.14281e-05
3.17109e-05
3.17724e-05
3.25671e-05
3.20875e-05
2.85276e-05
2.31123e-05
1.5412e-05
7.9919e-06
5.0916e-06
4.73771e-06
4.78503e-06
4.86305e-06
5.2073e-06
6.23342e-06
7.89307e-06
9.60229e-06
1.11995e-05
1.33781e-05
1.59941e-05
1.78181e-05
1.78927e-05
1.79098e-05
1.78667e-05
1.79525e-05
1.80825e-05
1.82409e-05
1.84311e-05
1.8666e-05
1.89142e-05
1.91637e-05
1.94295e-05
1.9729e-05
2.00291e-05
2.03408e-05
2.06753e-05
2.10333e-05
2.14149e-05
2.18207e-05
2.22518e-05
2.27061e-05
2.31804e-05
2.36768e-05
2.4188e-05
2.47377e-05
2.53106e-05
2.59079e-05
2.65077e-05
2.71558e-05
2.7828e-05
2.85094e-05
2.92012e-05
2.98544e-05
3.0528e-05
3.11386e-05
3.18756e-05
3.20864e-05
3.23369e-05
3.25311e-05
3.27945e-05
3.29722e-05
3.3289e-05
3.34209e-05
3.42015e-05
3.36872e-05
3.07434e-05
2.62801e-05
1.97679e-05
1.20751e-05
6.52647e-06
5.46068e-06
5.30347e-06
5.49756e-06
5.63565e-06
6.07874e-06
7.34321e-06
9.01868e-06
1.13816e-05
1.33767e-05
1.59934e-05
1.78177e-05
1.7892e-05
1.79092e-05
1.78662e-05
1.79521e-05
1.80823e-05
1.82408e-05
1.8431e-05
1.8666e-05
1.89142e-05
1.91638e-05
1.94295e-05
1.9729e-05
2.00292e-05
2.0341e-05
2.06756e-05
2.10336e-05
2.14153e-05
2.18211e-05
2.22523e-05
2.27066e-05
2.3181e-05
2.36775e-05
2.41887e-05
2.47384e-05
2.53114e-05
2.59087e-05
2.65086e-05
2.71568e-05
2.7829e-05
2.85105e-05
2.92024e-05
2.98558e-05
3.05295e-05
3.11403e-05
3.18777e-05
3.20897e-05
3.23402e-05
3.25344e-05
3.27979e-05
3.29756e-05
3.32923e-05
3.34242e-05
3.42045e-05
3.36905e-05
3.07461e-05
2.6282e-05
1.97691e-05
1.20756e-05
6.52676e-06
5.46079e-06
5.30355e-06
5.49763e-06
5.63575e-06
6.07888e-06
7.34343e-06
9.01921e-06
1.13826e-05
1.30627e-05
1.47205e-05
1.55222e-05
1.57067e-05
1.59955e-05
1.6331e-05
1.66989e-05
1.70257e-05
1.73632e-05
1.76963e-05
1.80101e-05
1.83037e-05
1.8591e-05
1.88977e-05
1.91996e-05
1.95105e-05
1.98429e-05
2.02018e-05
2.05868e-05
2.09973e-05
2.14331e-05
2.1891e-05
2.2366e-05
2.2856e-05
2.33615e-05
2.38807e-05
2.44169e-05
2.49639e-05
2.55285e-05
2.6099e-05
2.67024e-05
2.73281e-05
2.79733e-05
2.86318e-05
2.93156e-05
3.00682e-05
3.0784e-05
3.16455e-05
3.23314e-05
3.33844e-05
3.39266e-05
3.42649e-05
3.45015e-05
3.4859e-05
3.5043e-05
3.58639e-05
3.52898e-05
3.26549e-05
2.90564e-05
2.37484e-05
1.65968e-05
9.97195e-06
6.45211e-06
5.97286e-06
6.01193e-06
6.28008e-06
6.44454e-06
7.04459e-06
8.1644e-06
1.11141e-05
1.30607e-05
1.47196e-05
1.55214e-05
1.5706e-05
1.5995e-05
1.63306e-05
1.66986e-05
1.70255e-05
1.73631e-05
1.76963e-05
1.80101e-05
1.83037e-05
1.8591e-05
1.88978e-05
1.91998e-05
1.95106e-05
1.98431e-05
2.02021e-05
2.05872e-05
2.09978e-05
2.14336e-05
2.18916e-05
2.23666e-05
2.28567e-05
2.33622e-05
2.38816e-05
2.44179e-05
2.49649e-05
2.55296e-05
2.61002e-05
2.67036e-05
2.73294e-05
2.79747e-05
2.86333e-05
2.9317e-05
3.00697e-05
3.07856e-05
3.16472e-05
3.23335e-05
3.33866e-05
3.39304e-05
3.42686e-05
3.45053e-05
3.48626e-05
3.50464e-05
3.58673e-05
3.52931e-05
3.26581e-05
2.90588e-05
2.37501e-05
1.65976e-05
9.97261e-06
6.45232e-06
5.97297e-06
6.01202e-06
6.28019e-06
6.44466e-06
7.04475e-06
8.16482e-06
1.1115e-05
1.26357e-05
1.2766e-05
1.35282e-05
1.41752e-05
1.47925e-05
1.53804e-05
1.58844e-05
1.63571e-05
1.67852e-05
1.71637e-05
1.75016e-05
1.78141e-05
1.8137e-05
1.84454e-05
1.87634e-05
1.91038e-05
1.94722e-05
1.98718e-05
2.03016e-05
2.07599e-05
2.12449e-05
2.1752e-05
2.22752e-05
2.28118e-05
2.33593e-05
2.39179e-05
2.44818e-05
2.50483e-05
2.56205e-05
2.61989e-05
2.67883e-05
2.7388e-05
2.8001e-05
2.86329e-05
2.92836e-05
3.00021e-05
3.07051e-05
3.15553e-05
3.23189e-05
3.35334e-05
3.44324e-05
3.57592e-05
3.60558e-05
3.6458e-05
3.66743e-05
3.75474e-05
3.69501e-05
3.43751e-05
3.14719e-05
2.71862e-05
2.11594e-05
1.39571e-05
8.57917e-06
6.81846e-06
6.67025e-06
6.86511e-06
7.11843e-06
7.3853e-06
7.76875e-06
1.05856e-05
1.26334e-05
1.27652e-05
1.35275e-05
1.41747e-05
1.47921e-05
1.53801e-05
1.58842e-05
1.63571e-05
1.67853e-05
1.71637e-05
1.75017e-05
1.78142e-05
1.81372e-05
1.84457e-05
1.8764e-05
1.91042e-05
1.94726e-05
1.98722e-05
2.0302e-05
2.07605e-05
2.12455e-05
2.17527e-05
2.2276e-05
2.28127e-05
2.33602e-05
2.39189e-05
2.4483e-05
2.50495e-05
2.56218e-05
2.62003e-05
2.67898e-05
2.73897e-05
2.80026e-05
2.86347e-05
2.92854e-05
3.0004e-05
3.07071e-05
3.15575e-05
3.23211e-05
3.35356e-05
3.44349e-05
3.57633e-05
3.60598e-05
3.64618e-05
3.66782e-05
3.75513e-05
3.69538e-05
3.43785e-05
3.14747e-05
2.71882e-05
2.11607e-05
1.39576e-05
8.57961e-06
6.81866e-06
6.67037e-06
6.86524e-06
7.11855e-06
7.38543e-06
7.76906e-06
1.05862e-05
1.10763e-05
1.15994e-05
1.25405e-05
1.34616e-05
1.42241e-05
1.48656e-05
1.54553e-05
1.59676e-05
1.6407e-05
1.67905e-05
1.71372e-05
1.74801e-05
1.7802e-05
1.81306e-05
1.8483e-05
1.8868e-05
1.92893e-05
1.97477e-05
2.02403e-05
2.07637e-05
2.13131e-05
2.1884e-05
2.24705e-05
2.30694e-05
2.36763e-05
2.4291e-05
2.49059e-05
2.55197e-05
2.61308e-05
2.67448e-05
2.73567e-05
2.79702e-05
2.85855e-05
2.9221e-05
2.98614e-05
3.05587e-05
3.12437e-05
3.20859e-05
3.28482e-05
3.4068e-05
3.49899e-05
3.70002e-05
3.76575e-05
3.81114e-05
3.83542e-05
3.92513e-05
3.87022e-05
3.60476e-05
3.3533e-05
3.01529e-05
2.53036e-05
1.8668e-05
1.24118e-05
8.32269e-06
7.46938e-06
7.51367e-06
7.76692e-06
8.14759e-06
8.07994e-06
9.50099e-06
1.10756e-05
1.15989e-05
1.254e-05
1.34612e-05
1.42238e-05
1.48654e-05
1.54553e-05
1.59676e-05
1.64071e-05
1.67906e-05
1.71372e-05
1.74801e-05
1.78021e-05
1.81309e-05
1.84835e-05
1.88689e-05
1.92906e-05
1.97493e-05
2.02422e-05
2.07647e-05
2.13139e-05
2.18849e-05
2.24714e-05
2.30704e-05
2.36774e-05
2.42923e-05
2.49072e-05
2.55211e-05
2.61323e-05
2.67465e-05
2.73585e-05
2.79722e-05
2.85876e-05
2.92232e-05
2.98636e-05
3.05611e-05
3.12461e-05
3.20884e-05
3.28509e-05
3.40707e-05
3.49925e-05
3.70028e-05
3.7662e-05
3.81158e-05
3.83586e-05
3.92558e-05
3.87064e-05
3.60511e-05
3.35363e-05
3.01554e-05
2.53053e-05
1.86689e-05
1.24122e-05
8.32306e-06
7.46957e-06
7.51379e-06
7.76702e-06
8.14771e-06
8.08018e-06
9.50132e-06
1.0636e-05
1.15753e-05
1.24825e-05
1.34171e-05
1.41184e-05
1.47403e-05
1.53195e-05
1.58016e-05
1.6225e-05
1.66106e-05
1.69761e-05
1.73224e-05
1.76738e-05
1.80507e-05
1.84612e-05
1.89122e-05
1.94042e-05
1.99361e-05
2.05032e-05
2.11011e-05
2.17245e-05
2.23682e-05
2.30259e-05
2.36932e-05
2.43656e-05
2.50412e-05
2.57136e-05
2.63822e-05
2.70438e-05
2.77047e-05
2.83572e-05
2.90077e-05
2.96521e-05
3.03144e-05
3.09734e-05
3.1683e-05
3.23781e-05
3.32312e-05
3.40115e-05
3.52472e-05
3.61804e-05
3.82533e-05
3.93527e-05
3.98446e-05
4.0109e-05
4.10087e-05
4.05563e-05
3.78084e-05
3.5364e-05
3.26575e-05