/*--------------------------------*- C++ -*----------------------------------*\
| =========                 |                                                 |
| \\      /  F ield         | OpenFOAM: The Open Source CFD Toolbox           |
|  \\    /   O peration     | Version:  5.x                                   |
|   \\  /    A nd           | Web:      www.OpenFOAM.org                      |
|    \\/     M anipulation  |                                                 |
\*---------------------------------------------------------------------------*/
FoamFile
{
    version     2.0;
    format      ascii;
    class       volScalarField;
    location    "300/surface";
    object      omegaMean;
}
// * * * * * * * * * * * * * * * * * * * * * * * * * * * * * * * * * * * * * //

dimensions      [0 0 -1 0 0 0 0];

internalField   nonuniform List<scalar> 
7200
(
1775.93
1788.18
1800.57
1813.09
1825.73
1838.51
1851.43
1864.48
1877.67
1891
1904.47
1918.08
1931.85
1945.76
1959.82
1974.04
1988.41
2002.94
2017.62
2032.47
2047.49
2062.67
2078.02
2093.54
2109.24
2125.12
2141.17
2157.41
2173.83
2190.44
2207.25
2224.24
2241.44
2258.83
2276.43
2294.23
2312.24
2330.47
2348.91
2367.57
2386.46
2405.57
2424.91
2444.49
2464.3
2484.36
2667.79
3148.86
3053.19
2961.8
2874.46
2790.93
2710.98
2634.42
2561.06
2490.73
2423.25
2358.47
2296.26
2236.48
1775.93
1788.18
1800.57
1813.09
1825.73
1838.51
1851.43
1864.48
1877.67
1891
1904.47
1918.08
1931.85
1945.76
1959.82
1974.04
1988.41
2002.94
2017.62
2032.47
2047.49
2062.67
2078.02
2093.54
2109.24
2125.12
2141.17
2157.41
2173.83
2190.44
2207.25
2224.24
2241.44
2258.83
2276.43
2294.23
2312.24
2330.47
2348.91
2367.57
2386.46
2405.57
2424.91
2444.49
2464.3
2484.36
2667.79
3148.86
3053.19
2961.8
2874.46
2790.93
2710.98
2634.42
2561.06
2490.73
2423.25
2358.47
2296.26
2236.48
306.993
307.886
310.346
312.902
314.762
316.263
317.588
318.681
319.32
319.904
320.644
321.638
322.837
324.261
325.983
327.991
330.322
332.934
335.836
338.963
342.353
345.905
349.68
353.551
357.601
361.677
365.906
370.115
374.479
378.766
383.221
387.548
392.123
396.464
401.189
405.527
410.455
414.848
419.91
424.785
429.254
436.531
437.624
452.872
442.324
465.836
511.446
544.058
515.033
497.676
485.06
471.063
457.481
444.597
432.4
421.066
410.347
399.866
388.653
380.025
306.993
307.884
310.344
312.901
314.761
316.263
317.589
318.682
319.32
319.904
320.644
321.638
322.837
324.261
325.982
327.99
330.322
332.934
335.836
338.963
342.353
345.904
349.68
353.551
357.601
361.677
365.906
370.115
374.479
378.766
383.221
387.548
392.123
396.464
401.19
405.527
410.455
414.848
419.911
424.786
429.254
436.532
437.625
452.874
442.325
465.839
511.446
544.058
515.033
497.676
485.06
471.063
457.481
444.597
432.399
421.066
410.346
399.866
388.653
380.025
110.083
114.366
111.337
109.428
107.192
105.487
104.205
103.248
102.57
102.148
101.921
101.898
102.106
102.519
103.144
103.958
104.969
106.144
107.493
108.989
110.646
112.408
114.32
116.315
118.444
120.617
122.904
125.212
127.635
130.04
132.563
135.02
137.636
140.123
142.806
145.326
147.997
150.662
153.079
156.201
157.829
161.971
162.408
167.179
165.967
131.293
244.843
239.218
175.754
161.305
159.367
154.533
150.236
146.086
142.699
140.313
138.205
134.92
128.125
122.269
110.082
114.365
111.336
109.427
107.192
105.487
104.205
103.249
102.57
102.149
101.921
101.898
102.106
102.519
103.144
103.958
104.968
106.144
107.493
108.989
110.646
112.407
114.32
116.315
118.443
120.617
122.904
125.212
127.635
130.04
132.563
135.02
137.637
140.123
142.807
145.326
147.998
150.662
153.08
156.202
157.829
161.971
162.408
167.179
165.968
131.294
244.844
239.219
175.754
161.305
159.367
154.533
150.236
146.085
142.699
140.313
138.205
134.921
128.126
122.268
60.5544
61.9796
55.8082
53.2363
51.1725
49.9564
49.2847
48.9534
48.8028
48.7747
48.8322
48.966
49.1974
49.5091
49.8957
50.3494
50.8696
51.45
52.0938
52.8013
53.5659
54.3785
55.254
56.1781
57.1618
58.1866
59.2612
60.3755
61.5365
62.7344
63.9639
65.2287
66.5124
67.8463
69.1421
70.5696
71.7816
73.3806
74.3448
76.178
76.8368
78.6099
78.9575
79.7245
79.1892
46.2847
148.737
168.211
108.174
75.2408
72.4891
70.1429
68.4452
66.8331
66.213
66.4876
66.6189
64.6461
58.9766
56.3458
60.5525
61.9788
55.808
53.236
51.1722
49.956
49.2847
48.9538
48.8033
48.7752
48.8322
48.9658
49.1974
49.5092
49.8958
50.3495
50.8697
51.4501
52.0939
52.8014
53.566
54.3785
55.2541
56.178
57.1618
58.1866
59.2612
60.3755
61.5365
62.7344
63.964
65.2287
66.5125
67.8465
69.1424
70.5697
71.7818
73.3809
74.345
76.1784
76.8368
78.6102
78.9579
79.7248
79.1896
46.2849
148.738
168.212
108.175
75.2407
72.4889
70.1424
68.4447
66.8326
66.2125
66.4879
66.6199
64.6467
58.9768
56.3449
41.5805
39.3418
34.2918
32.6686
31.6797
31.2368
31.1048
31.1147
31.229
31.3839
31.5504
31.7347
31.9553
32.1972
32.456
32.7312
33.0209
33.3283
33.6527
34.0024
34.3652
34.7501
35.154
35.5863
36.0372
36.5185
37.012
37.541
38.0764
38.656
39.223
39.8501
40.4374
41.1196
41.6977
42.452
42.9661
43.8178
44.2179
45.1363
45.3905
46.2086
46.1621
46.353
45.1868
31.2559
84.1886
133.354
99.7364
50.2979
40.7192
38.3702
37.4803
37.0399
37.5326
38.7646
39.29
37.4945
34.2736
33.9331
41.5784
39.3411
34.2914
32.6682
31.6794
31.2365
31.1048
31.1149
31.2295
31.3841
31.5501
31.7345
31.9553
32.1973
32.4561
32.7314
33.0211
33.3285
33.653
34.0027
34.3654
34.7503
35.1542
35.5864
36.0374
36.5186
37.0121
37.5412
38.0765
38.6561
39.2231
39.8502
40.4375
41.1198
41.6979
42.4522
42.9663
43.8181
44.218
45.1366
45.3905
46.2089
46.1624
46.3533
45.1872
31.2559
84.1896
133.355
99.7372
50.2978
40.7189
38.3697
37.4798
37.0394
37.5323
38.765
39.2909
37.4952
34.2739
33.9328
31.4122
27.6436
24.586
23.773
23.4091
23.3353
23.4427
23.6175
23.8408
24.0623
24.2676
24.4699
24.6759
24.8744
25.0637
25.2458
25.4197
25.5917
25.7605
25.9346
26.1056
26.285
26.4674
26.6646
26.8675
27.0891
27.3126
27.5605
27.8051
28.0836
28.3435
28.6538
28.9212
29.2689
29.5257
29.9187
30.1377
30.5769
30.748
31.1956
31.2782
31.6504
31.4632
31.553
30.6535
23.7249
45.1964
106.742
96.6743
52.733
29.7491
24.8725
23.717
23.5156
24.3788
25.7809
26.2986
25.0335
23.6239
24.6125
31.4104
27.6429
24.5857
23.7726
23.4088
23.3351
23.4427
23.6177
23.8411
24.0622
24.2673
24.4698
24.6759
24.8745
25.0639
25.246
25.4198
25.5919
25.7607
25.9348
26.1058
26.2852
26.4676
26.6648
26.8676
27.0893
27.3127
27.5607
27.8052
28.0838
28.3436
28.654
28.9213
29.2691
29.5259
29.9188
30.1378
30.5771
30.7481
31.1958
31.2781
31.6505
31.4635
31.5533
30.6538
23.7246
45.1973
106.743
96.6752
52.7332
29.749
24.8721
23.7164
23.5152
24.3787
25.7814
26.2993
25.0342
23.6244
24.6128
24.8767
21.2593
19.5875
19.2787
19.2142
19.3653
19.611
19.8841
20.1715
20.4336
20.6684
20.8863
21.0861
21.2608
21.4109
21.5393
21.647
21.7414
21.821
21.8942
21.9571
22.0211
22.0803
22.1474
22.2147
22.2945
22.3728
22.4676
22.559
22.6734
22.7748
22.9119
23.0187
23.1811
23.2838
23.4727
23.5596
23.7679
23.8336
24.0394
24.0461
24.1947
24.0019
24.0171
23.4108
19.6688
26.0256
82.4151
88.8257
61.9229
30.6421
20.1416
17.5933
17.0365
17.6532
18.9099
19.3976
18.784
18.3151
19.8329
24.8751
21.2587
19.5872
19.2783
19.214
19.3651
19.611
19.8843
20.1717
20.4334
20.6682
20.8863
21.0861
21.2609
21.411
21.5395
21.6471
21.7416
21.8212
21.8944
21.9572
22.0213
22.0804
22.1476
22.2149
22.2947
22.3729
22.4678
22.5591
22.6736
22.7749
22.9121
23.0188
23.1812
23.2839
23.4728
23.5597
23.7681
23.8336
24.0396
24.046
24.1948
24.0021
24.0173
23.411
19.6684
26.0266
82.4157
88.8265
61.9236
30.6421
20.1413
17.5928
17.0361
17.6531
18.9104
19.3981
18.7846
18.3158
19.8336
20.3673
17.6256
16.7205
16.7084
16.8561
17.1614
17.5077
17.8584
18.1987
18.5037
18.7726
19.0099
19.2111
19.3728
19.4972
19.5882
19.6494
19.6881
19.706
19.7091
19.6986
19.6848
19.6617
19.6434
19.6226
19.6111
19.5969
19.5949
19.5911
19.6027
19.6086
19.6382
19.6512
19.6988
19.7151
19.778
19.7925
19.8643
19.869
19.9374
19.9017
19.9394
19.7642
19.7289
19.3003
17.3234
19.4399
58.567
78.7595
67.4586
37.9324
21.095
15.6719
14.157
14.1328
15.0512
15.5021
15.361
15.3242
16.8516
20.366
17.6251
16.7202
16.7081
16.8559
17.1613
17.5077
17.8585
18.1987
18.5035
18.7724
19.0099
19.2111
19.3728
19.4973
19.5883
19.6494
19.6882
19.7061
19.7092
19.6987
19.685
19.6617
19.6436
19.6227
19.6113
19.597
19.595
19.5912
19.6029
19.6086
19.6384
19.6512
19.6989
19.7152
19.7781
19.7926
19.8645
19.869
19.9375
19.9016
19.9395
19.7643
19.7291
19.3004
17.3228
19.4407
58.5674
78.7601
67.4594
37.9327
21.095
15.6715
14.1567
14.1326
15.0517
15.5025
15.3615
15.3248
16.8522
17.2835
15.3976
14.911
15.1587
15.4659
15.8926
16.3283
16.755
17.1525
17.5067
17.8124
18.0704
18.2769
18.4305
18.535
18.5957
18.6193
18.6121
18.5769
18.5206
18.4489
18.3717
18.2855
18.2024
18.1155
18.0365
17.9541
17.8822
17.809
17.7502
17.6873
17.6443
17.5904
17.5633
17.5166
17.5018
17.4598
17.4522
17.4068
17.4003
17.3272
17.3061
17.1334
17.0662
16.7373
15.6124
16.3349
40.4956
68.0815
66.2836
47.903
26.2413
16.8502
13.4374
12.5284
12.8185
13.2108
13.3003
13.4758
14.7946
17.2825
15.3973
14.9107
15.1584
15.4657
15.8925
16.3283
16.755
17.1524
17.5065
17.8122
18.0704
18.2769
18.4305
18.5351
18.5958
18.6193
18.6122
18.5769
18.5207
18.4489
18.3718
18.2855
18.2025
18.1156
18.0366
17.9542
17.8823
17.809
17.7503
17.6873
17.6443
17.5905
17.5634
17.5166
17.5019
17.4598
17.4523
17.4068
17.4004
17.3271
17.3061
17.1334
17.0663
16.7373
15.6117
16.3354
40.496
68.0819
66.2843
47.9035
26.2414
16.85
13.4372
12.5281
12.8189
13.2112
13.3007
13.4763
14.7949
15.1451
13.9497
13.7434
14.2087
14.6542
15.1925
15.7196
16.2237
16.6826
17.0886
17.4297
17.707
17.9185
18.0649
18.1504
18.1828
18.172
18.1227
18.0363
17.9281
17.802
17.6671
17.5237
17.3821
17.2399
17.1047
16.9665
16.838
16.7098
16.5953
16.4791
16.38
16.2754
16.1922
16.0981
16.0282
15.9407
15.8822
15.7917
15.7423
15.6294
15.5739
15.3936
15.3008
15.0277
14.2792
14.5125
27.6345
56.1715
62.7353
54.1312
33.9207
20.5585
14.636
12.2452
11.6818
11.8278
11.98
12.2437
13.3098
15.1443
13.9494
13.7432
14.2085
14.654
15.1924
15.7196
16.2236
16.6824
17.0884
17.4296
17.7069
17.9185
18.0649
18.1503
18.1829
18.172
18.1227
18.0364
17.9281
17.802
17.6671
17.5237
17.3821
17.2399
17.1047
16.9666
16.838
16.7098
16.5953
16.4791
16.3801
16.2754
16.1922
16.0981
16.0282
15.9407
15.8822
15.7917
15.7423
15.6293
15.5739
15.3936
15.3008
15.0277
14.2787
14.513
27.6346
56.172
62.7358
54.1317
33.921
20.5584
14.636
12.2449
11.6821
11.8281
11.9803
12.2441
13.3099
13.6431
12.9761
13.0077
13.652
14.2306
14.8804
15.4962
16.071
16.5856
17.0346
17.4032
17.695
17.9078
18.0433
18.1091
18.1157
18.0756
17.9854
17.8573
17.705
17.5284
17.3399
17.1444
16.9493
16.7552
16.5673
16.3797
16.2017
16.0267
15.8647
15.704
15.5584
15.4122
15.2836
15.1509
15.0372
14.9139
14.814
14.6913
14.6042
14.4645
14.3791
14.1903
14.0691
13.827
13.2354
13.3017
20.4839
43.0756
56.9898
54.4693
41.8157
26.119
17.5449
13.2809
11.4617
11.068
11.1183
11.3854
12.2209
13.6427
12.9759
13.0076
13.6518
14.2305
14.8802
15.4961
16.0708
16.5854
17.0344
17.403
17.6949
17.9077
18.0433
18.109
18.1158
18.0756
17.9854
17.8573
17.705
17.5284
17.34
17.1444
16.9493
16.7552
16.5673
16.3797
16.2017
16.0267
15.8647
15.7039
15.5584
15.4121
15.2836
15.1509
15.0372
14.9139
14.814
14.6913
14.6041
14.4644
14.379
14.1902
14.0691
13.827
13.235
13.3022
20.484
43.0761
56.9903
54.4699
41.8161
26.1191
17.5449
13.2808
11.4619
11.0682
11.1186
11.3857
12.2211
12.5966
12.3114
12.5918
13.382
14.0937
14.8468
15.551
16.2002
16.7742
17.2659
17.6595
17.9615
18.1692
18.2864
18.3234
18.2984
18.2152
18.0746
17.8978
17.6945
17.4715
17.2381
16.9983
16.7535
16.5112
16.2737
16.0403
15.8176
15.601
15.3968
15.197
15.0112
14.8293
14.6622
14.497
14.3463
14.1938
14.0583
13.9112
13.7886
13.633
13.5133
13.3258
13.1634
12.9485
12.4227
12.4248
16.4151
31.3072
49.6795
52.9827
46.9287
32.8905
21.7524
15.6787
12.2373
10.8966
10.6211
10.7908
11.4248
12.5965
12.3112
12.5916
13.3818
14.0936
14.8466
15.5508
16.2
16.7739
17.2657
17.6593
17.9614
18.1691
18.2863
18.3233
18.2984
18.2152
18.0745
17.8977
17.6945
17.4715
17.238
16.9983
16.7535
16.5111
16.2736
16.0402
15.8175
15.6009
15.3967
15.197
15.011
14.8292
14.6621
14.4969
14.3462
14.1936
14.0582
13.9111
13.7885
13.6328
13.5132
13.3257
13.1634
12.9484
12.4222
12.4253
16.4153
31.3076
49.6799
52.9833
46.9293
32.8907
21.7525
15.6786
12.2374
10.8968
10.6213
10.7912
11.425
11.8672
11.9124
12.4253
13.3471
14.1918
15.0505
15.8446
16.567
17.1964
17.7231
18.1316
18.4346
18.6263
18.7136
18.7129
18.6468
18.5057
18.3107
18.0801
17.8226
17.547
17.2634
16.9762
16.6886
16.4008
16.1182
15.8439
15.5808
15.3267
15.0842
14.8499
14.6288
14.416
14.2157
14.0223
13.8399
13.663
13.4967
13.3301
13.1752
13.0092
12.8535
12.6726
12.4707
12.2723
11.7749
11.7546
14.0286
22.3894
40.5662
49.5727
47.7275
39.1767
27.189
19.0667
14.2375
11.4461
10.5136
10.433
10.8598
11.8671
11.9123
12.4252
13.3469
14.1916
15.0503
15.8444
16.5667
17.1961
17.7229
18.1314
18.4345
18.6262
18.7135
18.7128
18.6467
18.5056
18.3107
18.0801
17.8226
17.547
17.2634
16.9761
16.6885
16.4007
16.1181
15.8438
15.5807
15.3265
15.0841
14.8498
14.6286
14.4159
14.2155
14.0222
13.8398
13.6629
13.4965
13.33
13.175
13.009
12.8533
12.6724
12.4705
12.2722
11.7746
11.755
14.0287
22.3895
40.5666
49.5733
47.728
39.1771
27.1891
19.0667
14.2376
11.4463
10.5139
10.4333
10.8601
11.3881
11.7673
12.4807
13.5315
14.5097
15.473
16.354
17.1418
17.8181
18.3677
18.7746
19.0572
19.2097
19.2457
19.1963
19.0633
18.8564
18.6022
18.3144
18.0016
17.6744
17.3408
17.0044
16.6735
16.3453
16.0236
15.7127
15.4133
15.1252
14.8486
14.5843
14.333
14.0936
13.8648
13.6476
13.4385
13.2413
13.0487
12.8663
12.6834
12.5092
12.3213
12.1448
11.911
11.721
11.2377
11.21
12.5784
17.247
30.6428
43.9513
46.619
42.8468
33.1294
23.5396
17.1165
13.0353
10.8942
10.359
10.5089
11.388
11.7671
12.4805
13.5313
14.5095
15.4728
16.3537
17.1415
17.8178
18.3674
18.7744
19.057
19.2095
19.2455
19.1962
19.0632
18.8563
18.6021
18.3144
18.0016
17.6743
17.3408
17.0043
16.6734
16.3452
16.0235
15.7125
15.4132
15.1251
14.8484
14.5841
14.3327
14.0934
13.8646
13.6473
13.4382
13.2411
13.0484
12.866
12.6831
12.5089
12.3211
12.1446
11.9108
11.7208
11.2375
11.2101
12.5785
17.2471
30.6431
43.9518
46.6195
42.8474
33.1296
23.5397
17.1167
13.0356
10.8945
10.3593
10.5092
11.1764
11.8662
12.7712
13.9513
15.0569
16.1175
17.0774
17.9167
18.6135
19.1489
19.5125
19.7294
19.8029
19.7627
19.6273
19.4027
19.1237
18.8062
18.4619
18.1049
17.7398
17.3701
16.9994
16.6322
16.2705
15.9178
15.5766
15.2476
14.9316
14.628
14.3394
14.0636
13.8021
13.5498
13.3133
13.083
12.8698
12.6557
12.4606
12.2553
12.0737
11.8605
11.6843
11.4272
11.2406
10.7659
10.7383
11.631
14.2661
22.1977
36.422
43.8688
42.9901
37.822
28.6983
20.9755
15.5113
12.1064
10.6388
10.4093
11.1763
11.866
12.771
13.9511
15.0567
16.1173
17.0772
17.9164
18.6132
19.1486
19.5122
19.7292
19.8027
19.7625
19.6271
19.4026
19.1236
18.8061
18.4618
18.1048
17.7397
17.37
16.9993
16.6321
16.2704
15.9176
15.5764
15.2474
14.9314
14.6278
14.3392
14.0633
13.8018
13.5495
13.313
13.0827
12.8695
12.6554
12.4603
12.255
12.0734
11.8602
11.6841
11.4269
11.2403
10.7657
10.7381
11.6311
14.2661
22.1979
36.4224
43.8693
42.9907
37.8224
28.6985
20.9758
15.5116
12.1068
10.639
10.4096
11.291
12.2666
13.3579
14.6503
15.8697
17.0142
18.0179
18.8544
19.4978
19.9407
20.1886
20.2746
20.2201
20.0637
19.8234
19.5341
19.2021
18.8394
18.4566
18.0604
17.6593
17.258
16.8601
16.4691
16.0872
15.7167
15.358
15.012
14.6801
14.3617
14.0583
13.7667
13.4908
13.2236
12.9743
12.7289
12.504
12.2736
12.0694
11.8479
11.6597
11.429
11.2501
10.9781
10.7926
10.3245
10.3094
10.951
12.5016
16.9258
27.8375
38.6864
41.8334
39.7765
33.5509
25.5885
18.9351
14.2546
11.5916
10.6258
11.291
12.2664
13.3577
14.6501
15.8694
17.0139
18.0176
18.8541
19.4975
19.9404
20.1883
20.2744
20.2199
20.0635
19.8232
19.534
19.202
18.8393
18.4565
18.0603
17.6592
17.2579
16.86
16.469
16.087
15.7165
15.3578
15.0118
14.6799
14.3615
14.058
13.7664
13.4905
13.2232
12.9739
12.7285
12.5037
12.2733
12.069
11.8476
11.6594
11.4287
11.2498
10.9778
10.7923
10.3242
10.3091
10.9509
12.5017
16.9259
27.8379
38.6869
41.834
39.777
33.5512
25.5889
18.9355
14.255
11.5919
10.6262
11.897
13.1059
14.3265
15.7135
17.0047
18.1614
19.0978
19.8104
20.2951
20.5371
20.5925
20.5233
20.3607
20.1102
19.7938
19.4278
19.0315
18.6161
18.191
17.7622
17.3357
16.915
16.5035
16.1031
15.7154
15.3414
14.981
14.6342
14.302
13.9834
13.6793
13.3861
13.1086
12.8389
12.5868
12.3359
12.1068
11.8691
11.6608
11.4289
11.236
10.9955
10.8129
10.5338
10.3496
9.88731
9.90502
10.4086
11.3917
13.8821
20.5212
31.6075
38.9374
39.3237
36.6154
30.2071
23.1565
17.2854
13.5162
11.3987
11.8973
13.1059
14.3263
15.7133
17.0044
18.1612
19.0975
19.8101
20.2949
20.5369
20.5923
20.5232
20.3606
20.1101
19.7936
19.4276
19.0313
18.6159
18.1908
17.762
17.3355
16.9149
16.5033
16.103
15.7153
15.3412
14.9808
14.634
14.3017
13.9831
13.679
13.3857
13.1082
12.8385
12.5864
12.3355
12.1064
11.8687
11.6604
11.4285
11.2356
10.9951
10.8125
10.5335
10.3493
9.887
9.90475
10.4084
11.3917
13.8822
20.5215
31.6079
38.938
39.3243
36.6158
30.2075
23.157
17.2859
13.5165
11.3989
13.2979
14.5333
15.8083
17.2009
18.4127
19.3993
20.1112
20.5772
20.7773
20.7855
20.7041
20.5126
20.2136
19.851
19.4446
19.0093
18.5577
18.099
17.6406
17.1878
16.7452
16.3153
15.9005
15.5019
15.1201
14.7546
14.4054
14.0712
13.7525
13.4471
13.1564
12.8756
12.6098
12.3506
12.1079
11.8646
11.6422
11.4096
11.2049
10.9727
10.7807
10.5369
10.352
10.074
9.89316
9.43996
9.48717
9.97002
10.6235
12.0771
15.754
24.1087
33.4567
37.6409
36.9479
33.6591
27.4683
21.1689
16.25
12.9841
13.2987
14.5336
15.8081
17.2006
18.4124
19.399
20.1109
20.5769
20.777
20.7853
20.704
20.5126
20.2136
19.8509
19.4445
19.0092
18.5575
18.0987
17.6403
17.1876
16.745
16.315
15.9003
15.5017
15.1199
14.7544
14.4051
14.0709
13.7521
13.4467
13.156
12.8752
12.6094
12.3501
12.1075
11.8642
11.6417
11.4092
11.2045
10.9723
10.7803
10.5364
10.3516
10.0736
9.89278
9.43959
9.48687
9.96976
10.6234
12.077
15.7541
24.1091
33.4572
37.6414
36.9485
33.6595
27.4688
21.1694
16.2503
12.9843
15.376
16.5367
17.7841
18.9324
19.8304
20.4768
20.8424
20.9651
20.9214
20.7815
20.5082
20.1548
19.7376
19.2786
18.7952
18.2998
17.8017
17.3083
16.8256
16.3577
15.908
15.4781
15.0695
14.6819
14.3154
13.968
13.6395
13.3275
13.0321
12.7498
12.4824
12.2244
11.9806
11.742
11.5185
11.2936
11.0871
10.8698
10.6778
10.4581
10.2757
10.0387
9.85618
9.58779
9.41392
8.98047
9.03935
9.56252
10.0583
10.9511
13.0048
17.9932
26.6496
33.8324
36.0072
34.8431
31.1116
25.2804
19.8879
15.1819
15.3775
16.5375
17.7842
18.9322
19.83
20.4763
20.842
20.9647
20.9211
20.7814
20.5082
20.1548
19.7376
19.2785
18.7951
18.2996
17.8014
17.308
16.8252
16.3573
15.9076
15.4778
15.0692
14.6816
14.3151
13.9677
13.6392
13.3271
13.0317
12.7494
12.4819
12.2239
11.9801
11.7415
11.518
11.2931
11.0866
10.8693
10.6774
10.4576
10.2752
10.0383
9.85573
9.58736
9.4135
8.98007
9.03896
9.56226
10.0581
10.951
13.0048
17.9934
26.65
33.8329
36.0078
34.8436
31.1121
25.281
19.8882
15.1821
18.0417
18.9026
19.9109
20.5751
21.0153
21.2265
21.1857
21.0537
20.7918
20.4341
19.9982
19.5084
18.9842
18.4397
17.8898
17.3437
16.8087
16.2906
15.7935
15.3207
14.8741
14.4543
14.0614
13.6941
13.3512
13.03
12.7295
12.4464
12.1806
11.9278
11.6895
11.4602
11.244
11.0321
10.8335
10.6332
10.4486
10.2534
10.0796
9.8803
9.7132
9.49621
9.32359
9.07371
8.91135
8.50895
8.56515
9.13792
9.60889
10.1895
11.382
14.1175
20.2065
27.8301
33.3789
34.2603
32.8438
28.8804
23.8672
18.1096
18.0441
18.9039
19.9112
20.5748
21.0149
21.2259
21.185
21.0532
20.7914
20.4339
19.9982
19.5084
18.9843
18.4397
17.8898
17.3436
16.8084
16.2902
15.7931
15.3202
14.8737
14.4539
14.061
13.6937
13.3508
13.0296
12.7291
12.446
12.1801
11.9273
11.689
11.4596
11.2434
11.0315
10.8329
10.6327
10.448
10.2529
10.079
9.87977
9.71268
9.49572
9.32311
9.07325
8.91089
8.50851
8.56473
9.13759
9.60865
10.1893
11.382
14.1176
20.2069
27.8306
33.3794
34.2609
32.8443
28.8809
23.8676
18.1105
21.1242
21.4553
21.8274
21.8935
21.8022
21.5634
21.2407
20.8372
20.3511
19.8077
19.2234
18.615
17.9977
17.3819
16.7791
16.196
15.6377
15.1084
14.6101
14.1452
13.7139
13.3152
12.9479
12.6093
12.2974
12.0086
11.7412
11.4914
11.2585
11.0382
10.8315
10.6331
10.4463
10.2634
10.0916
9.91836
9.75751
9.58771
9.4341
9.25924
9.10936
8.91738
8.76337
8.5395
8.3926
8.02914
8.07736
8.67817
9.18528
9.64639
10.3663
11.8862
15.3806
21.6196
28.2544
32.3145
32.4979
30.9049
27.3758
21.5173
21.1277
21.4573
21.8281
21.8933
21.8017
21.5626
21.2399
20.8365
20.3506
19.8074
19.2233
18.615
17.9978
17.382
16.7792
16.1959
15.6375
15.108
14.6096
14.1445
13.7132
13.3146
12.9473
12.6088
12.2969
12.0081
11.7407
11.4909
11.2579
11.0377
10.8309
10.6324
10.4457
10.2628
10.091
9.91773
9.75689
9.5871
9.43351
9.25866
9.1088
8.91685
8.76285
8.539
8.39211
8.02867
8.07692
8.67778
9.18498
9.64617
10.3662
11.8862
15.3808
21.62
28.2548
32.315
32.4984
30.9055
27.3761
21.5191
23.9538
23.5459
23.1671
22.6513
22.1048
21.5575
20.9468
20.294
19.6098
18.9078
18.1993
17.496
16.8081
16.1451
15.512
14.9135
14.3529
13.8315
13.3504
12.9091
12.5064
12.14
11.8071
11.5044
11.2286
10.976
10.744
10.5289
10.3294
10.1417
9.96598
9.79777
9.63946
9.48461
9.33867
9.19167
9.05393
8.90918
8.77562
8.62577
8.49302
8.32609
8.1944
7.99972
7.87027
7.54852
7.59012
8.18815
8.73791
9.19343
9.69053
10.5628
12.4434
16.5067
22.3213
28.0293
31.0004
30.7405
29.2896
24.8225
23.9582
23.5482
23.1681
22.6512
22.1042
21.5567
20.9459
20.2931
19.609
18.9072
18.199
17.4959
16.8081
16.1452
15.5121
14.9135
14.3526
13.831
13.3498
12.9083
12.5057
12.1392
11.8064
11.5037
11.228
10.9754
10.7434
10.5282
10.3288
10.141
9.96531
9.79709
9.63877
9.48391
9.33798
9.19098
9.05325
8.90852
8.77498
8.62515
8.49243
8.32552
8.19384
7.9992
7.86976
7.54803
7.58966
8.18774
8.73756
9.19315
9.69035
10.5627
12.4435
16.5069
22.3217
28.0298
31.0009
30.741
29.29
24.8251
25.7525
24.6023
23.6989
22.8227
21.9595
21.1005
20.2439
19.392
18.5523
17.7313
16.9363
16.1749
15.453
14.7754
14.1443
13.5606
13.0243
12.5343
12.0899
11.6882
11.3267
11.0018
10.7099
10.4469
10.2094
9.99341
9.79618
9.61417
9.44595
9.28813
9.1406
8.99955
8.86662
8.73669
8.61373
8.48995
8.37299
8.25048
8.1355
8.0084
7.89122
7.75035
7.63803
7.47083
7.35847
7.07657
7.11517
7.68419
8.2536
8.74462
9.18397
9.72705
10.7634
12.9924
17.2043
22.4589
27.453
29.48
29.2508
26.9487
25.7567
24.6047
23.6999
22.8228
21.9589
21.0996
20.2428
19.3908
18.5512
17.7303
16.9356
16.1745
15.4529
14.7755
14.1444
13.5606
13.0241
12.5339
12.0893
11.6874
11.3258
11.0008
10.709
10.4461
10.2087
9.99268
9.79547
9.61347
9.44525
9.28741
9.13987
8.99881
8.86587
8.73594
8.61299
8.48922
8.37227
8.24979
8.13482
8.00775
7.8906
7.74974
7.63745
7.47028
7.35793
7.07606
7.11469
7.68376
8.25322
8.7443
9.18373
9.72691
10.7634
12.9925
17.2045
22.4593
27.4534
29.4805
29.2512
26.9505
26.2011
24.7435
23.4986
22.3167
21.1857
20.1078
19.0794
18.098
17.1653
16.2849
15.4607
14.6948
13.9883
13.3404
12.7494
12.2123
11.7265
11.2889
10.8967
10.5462
10.2336
9.95493
9.70613
9.48316
9.28259
9.10072
8.93501
8.78238
8.64136
8.50914
8.38539
8.26708
8.15528
8.04597
7.94207
7.83748
7.73802
7.63382
7.53529
7.42653
7.32449
7.20651
7.1097
6.96595
6.8688
6.62244
6.66028
7.18436
7.74301
8.26393
8.71875
9.15258
9.74993
10.9437
13.4723
17.3736
22.3282
26.2946
28.201
27.4567
26.2052
24.7458
23.4996
22.3168
21.1851
20.1067
19.078
18.0965
17.1638
16.2836
15.4596
14.6941
13.9879
13.3403
12.7494
12.2123
11.7263
11.2885
10.8961
10.5453
10.2327
9.9539
9.70512
9.48221
9.28169
9.09987
8.93421
8.78159
8.64058
8.50836
8.3846
8.26628
8.15448
8.04518
7.94129
7.83672
7.73727
7.63309
7.53459
7.42586
7.32384
7.20589
7.10909
6.96539
6.86825
6.62192
6.65979
7.18391
7.74261
8.26358
8.71845
9.15237
9.74981
10.9437
13.4724
17.3739
22.3286
26.2949
28.2014
27.4601
25.4272
23.8144
22.3371
20.9805
19.7139
18.5353
17.4398
16.4242
15.4877
14.6301
13.8489
13.1408
12.5012
11.9248
11.4062
10.9404
10.5232
10.1506
9.81872
9.5236
9.26134
9.02803
8.82
8.63365
8.46599
8.31385
8.17504
8.04697
7.92836
7.81693
7.7123
7.6121
7.51703
7.42399
7.33511
7.24559
7.16006
7.07028
6.98545
6.89048
6.80422
6.7021
6.61761
6.493
6.40862
6.19278
6.22995
6.70273
7.22625
7.75088
8.23399
8.66179
9.09803
9.75315
11.1216
13.5647
17.4502
21.4237
25.3865
26.6857
25.4302
23.816
22.3376
20.9801
19.7129
18.5339
17.4381
16.4224
15.4859
14.6284
13.8475
13.1397
12.5005
11.9244
11.406
10.9404
10.5231
10.1502
9.81808
9.52275
9.26033
9.02695
8.81892
8.63261
8.465
8.31292
8.17416
8.04613
7.92753
7.8161
7.71148
7.61127
7.51621
7.42317
7.33431
7.24481
7.1593
7.06954
6.98473
6.8898
6.80355
6.70147
6.617
6.49242
6.40807
6.19226
6.22946
6.70227
7.22583
7.75051
8.23367
8.66153
9.09785
9.75304
11.1216
13.5648
17.4505
21.4242
25.3862
26.6895
23.3672
21.6987
20.1896
18.8295
17.5899
16.4586
15.4299
14.4982
13.6594
12.9065
12.2332
11.632
11.0947
10.6142
10.1844
9.79998
9.45667
9.15047
8.87774
8.63495
8.41873
8.22586
8.05337
7.89831
7.75823
7.63063
7.51368
7.40533
7.3045
7.20939
7.11966
7.03345
6.95124
6.87063
6.79323
6.71525
6.64033
6.56179
6.48732
6.40382
6.33005
6.23949
6.16443
6.05499
5.98101
5.79084
5.82629
6.24764
6.72249
7.22341
7.7171
8.16539
8.58174
9.00122
9.7719
11.0734
13.7214
16.7456
20.7669
24.2684
23.3687
21.6991
20.1891
18.8283
17.5884
16.4569
15.428
14.4962
13.6574
12.9045
12.2315
11.6306
11.0937
10.6136
10.184
9.7998
9.45646
9.1501
8.87715
8.63414
8.41775
8.22479
8.05227
7.89723
7.7572
7.62965
7.51276
7.40445
7.30364
7.20855
7.11882
7.03262
6.95042
6.86982
6.79243
6.71447
6.63957
6.56105
6.48661
6.40314
6.32939
6.23886
6.16382
6.05442
5.98046
5.79033
5.8258
6.24718
6.72206
7.22302
7.71674
8.16509
8.5815
9.00105
9.77184
11.0734
13.7214
16.7463
20.7663
24.2703
19.8711
18.504
17.2546
16.1226
15.0941
14.1621
13.3217
12.5676
11.8931
11.29
10.7537
10.2758
9.84865
9.46624
9.12351
8.81611
8.54057
8.29368
8.07259
7.87464
7.69726
7.538
7.3946
7.26484
7.14684
7.03865
6.93888
6.84589
6.75883
6.67628
6.59796
6.52242
6.44999
6.3788
6.31006
6.24083
6.17386
6.10404
6.03709
5.9636
5.89745
5.81625
5.74863
5.65122
5.58556
5.41671
5.4495
5.82243
6.24485
6.70306
7.18232
7.63792
8.07907
8.43851
8.94524
9.6411
11.1544
13.2839
15.9999
20.5264
19.871
18.5035
17.2533
16.1208
15.0921
14.16
13.3196
12.5656
11.8911
11.288
10.7519
10.2743
9.84745
9.46542
9.12301
8.81581
8.54031
8.29332
8.07206
7.87391
7.69636
7.53699
7.39354
7.26378
7.14582
7.03768
6.93796
6.84501
6.75798
6.67545
6.59715
6.52161
6.44919
6.37801
6.30929
6.24008
6.17313
6.10333
6.0364
5.96294
5.89681
5.81563
5.74804
5.65067
5.58503
5.41622
5.44902
5.82197
6.24441
6.70265
7.18195
7.63759
8.0788
8.43828
8.94511
9.64103
11.1542
13.2845
15.9996
20.5273
16.0719
15.1159
14.223
13.4169
12.6816
12.0104
11.3996
10.8467
10.3467
9.89641
9.4891
9.12251
8.79273
8.49545
8.22704
7.98444
7.7652
7.56704
7.38795
7.226
7.07945
6.94658
6.82584
6.71564
6.61462
6.52133
6.4347
6.35345
6.27693
6.20399
6.13441
6.06703
6.00209
5.9381
5.876
5.81346
5.75262
5.68948
5.62839
5.56236
5.50168
5.42789
5.36619
5.27842
5.21943
5.06816
5.09796
5.42709
5.79952
6.20651
6.65165
7.09061
7.5482
7.91448
8.34261
8.75802
9.56074
10.9753
12.605
16.5249
16.0711
15.1144
14.2212
13.415
12.6796
12.0084
11.3977
10.8448
10.3449
9.8946
9.48734
9.12095
8.79145
8.4945
8.22641
7.98404
7.7649
7.56671
7.3875
7.22539
7.07868
6.94569
6.82487
6.71465
6.61366
6.5204
6.43381
6.35261
6.27611
6.2032
6.13364
6.06627
6.00134
5.93737
5.87528
5.81276
5.75193
5.68881
5.62775
5.56174
5.50107
5.42732
5.36563
5.2779
5.21892
5.06769
5.09751
5.42664
5.79908
6.2061
6.65127
7.09026
7.5479
7.91423
8.34241
8.75796
9.56052
10.9756
12.6051
16.5253
12.9417
12.3231
11.7357
11.1968
10.701
10.2429
9.81968
9.43051
9.07275
8.74584
8.44481
8.16819
7.91641
7.68685
7.47716
7.28539
7.10988
6.9492
6.80209
6.66739
6.54405
6.43103
6.32733
6.23187
6.14368
6.06167
5.98503
5.91277
5.84433
5.77883
5.71605
5.65504
5.59599
5.53768
5.48085
5.42358
5.36765
5.30969
5.25356
5.19279
5.13649
5.0688
5.01191
4.93205
4.87848
4.74176
4.76886
5.05942
5.38734
5.74296
6.14337
6.54713
6.99397
7.37595
7.78572
8.14901
8.58304
9.46814
10.4405
13.2371
12.9407
12.3211
11.7337
11.1948
10.6991
10.241
9.81794
9.42885
9.07111
8.74423
8.44321
8.16671
7.91515
7.68587
7.47648
7.28494
7.10957
6.94891
6.80173
6.6669
6.54342
6.43028
6.3265
6.23101
6.14282
6.06083
5.98423
5.91199
5.84359
5.77811
5.71534
5.65435
5.59532
5.53702
5.48019
5.42294
5.36702
5.30909
5.25297
5.19222
5.13594
5.06827
5.0114
4.93157
4.87801
4.74133
4.76844
5.05899
5.38692
5.74255
6.14298
6.54677
6.99366
7.37568
7.78547
8.14889
8.58291
9.46816
10.4405
13.2374
10.7102
10.3177
9.93319
9.57121
9.23127
8.91153
8.61118
8.3302
8.06817
7.82497
7.59974
7.38937
7.19476
7.01455
6.84745
6.6924
6.54848
6.41493
6.2911
6.17638
6.07022
5.972
5.88111
5.79679
5.71836
5.645
5.57609
5.51082
5.44875
5.38915
5.33181
5.27596
5.22171
5.16805
5.11556
5.06265
5.01084
4.95713
4.90521
4.84868
4.79603
4.73352
4.68069
4.60752
4.55848
4.43396
4.4589
4.71607
5.00575
5.31502
5.66779
6.02835
6.43889
6.82385
7.21311
7.60615
7.89984
8.48296
9.06384
10.8972
10.7091
10.3156
9.93106
9.56913
9.22928
8.90968
8.60945
8.32857
8.06659
7.82344
7.59826
7.38799
7.19355
7.01358
6.84675
6.69193
6.54817
6.41468
6.29082
6.17601
6.06974
5.97141
5.88044
5.79607
5.71763
5.64428
5.57538
5.51014
5.4481
5.38852
5.3312
5.27537
5.22113
5.16748
5.115
5.0621
5.0103
4.95661
4.9047
4.84819
4.79555
4.73306
4.68024
4.60709
4.55806
4.43358
4.45853
4.71567
5.00535
5.31462
5.66741
6.02799
6.43856
6.82356
7.21284
7.60597
7.8997
8.48289
9.06383
10.8973
9.19182
8.92863
8.66254
8.40558
8.15908
7.92302
7.69787
7.48418
7.28235
7.09262
6.91452
6.74756
6.59098
6.44406
6.30608
6.17651
6.05487
5.94079
5.83397
5.73408
5.64085
5.5539
5.47285
5.39718
5.3264
5.25988
5.19713
5.1375
5.08061
5.02586
4.97305
4.92152
4.87134
4.82165
4.77291
4.72378
4.67554
4.62558
4.57727
4.52454
4.47515
4.41725
4.36798
4.30068
4.25554
4.1415
4.16479
4.39352
4.65052
4.92075
5.2279
5.54608
5.90539
6.27659
6.63166
7.04478
7.31981
7.76451
8.13647
9.31613
9.19067
8.92632
8.66025
8.40336
8.15697
7.92105
7.69604
7.48247
7.28073
7.09109
6.91307
6.74624
6.58983
6.44313
6.3054
6.17605
6.05458
5.94059
5.83377
5.73384
5.64052
5.55348
5.47235
5.39663
5.32582
5.2593
5.19656
5.13695
5.08009
5.02536
4.97256
4.92105