/*--------------------------------*- C++ -*----------------------------------*\
| =========                 |                                                 |
| \\      /  F ield         | OpenFOAM: The Open Source CFD Toolbox           |
|  \\    /   O peration     | Version:  5.x                                   |
|   \\  /    A nd           | Web:      www.OpenFOAM.org                      |
|    \\/     M anipulation  |                                                 |
\*---------------------------------------------------------------------------*/
FoamFile
{
    version     2.0;
    format      ascii;
    class       volScalarField;
    location    "300/surface";
    object      pMean;
}
// * * * * * * * * * * * * * * * * * * * * * * * * * * * * * * * * * * * * * //

dimensions      [0 2 -2 0 0 0 0];

internalField   nonuniform List<scalar> 
7200
(
-0.000526984
-0.000548797
-0.00054682
-0.000525635
-0.000479681
-0.000412671
-0.000327063
-0.000225702
-0.000112745
7.3915e-06
0.000131186
0.000254677
0.000374126
0.000486543
0.00058942
0.000680958
0.000760054
0.000826173
0.000879423
0.000920026
0.000948647
0.000966
0.000973026
0.000970473
0.000959384
0.000940411
0.000914536
0.000882102
0.000844001
0.000800329
0.000751944
0.000698536
0.00064098
0.00057847
0.000512166
0.000440281
0.000364717
0.000281792
0.000195251
9.72908e-05
-4.40434e-06
-0.000127242
-0.000256373
-0.000432565
-0.000641047
-0.00101151
-0.00143606
-0.000873499
-0.000645092
-0.000636982
-0.000605495
-0.000589272
-0.000571169
-0.000559718
-0.000550135
-0.000545379
-0.000542053
-0.000537385
-0.000523053
-0.000485525
-0.000527351
-0.000549035
-0.000546997
-0.000525781
-0.000479824
-0.000412833
-0.000327262
-0.000225942
-0.000113037
7.04868e-06
0.000130796
0.000254244
0.000373649
0.00048602
0.000588859
0.000680392
0.000759533
0.000825734
0.000879075
0.000919765
0.000948458
0.000965873
0.000972943
0.000970416
0.000959355
0.000940424
0.00091461
0.000882259
0.000844252
0.000800688
0.000752421
0.000699152
0.000641737
0.000579363
0.000513205
0.000441502
0.000366208
0.000283692
0.000197754
0.000100587
1.07187e-10
-0.000124344
-0.000254319
-0.000430982
-0.000639723
-0.00101015
-0.00143482
-0.000872403
-0.000644025
-0.000635984
-0.00060453
-0.000588217
-0.00056998
-0.000558379
-0.00054873
-0.000544011
-0.000540798
-0.000536309
-0.000522175
-0.000484855
-0.000525651
-0.000544341
-0.000542458
-0.000521393
-0.000475688
-0.000409026
-0.000323635
-0.00022284
-0.000110208
9.55274e-06
0.000132911
0.000255897
0.000374899
0.000486882
0.000589375
0.000680574
0.000759395
0.000825285
0.000878349
0.000918814
0.000947337
0.000964616
0.000971585
0.000969001
0.000957885
0.000938901
0.000913002
0.000880564
0.000842439
0.000798766
0.000750349
0.000696933
0.000639326
0.000576793
0.000510405
0.000438477
0.000362754
0.000279794
0.000192876
9.50026e-05
-7.74664e-06
-0.000129888
-0.000262471
-0.000434948
-0.000660483
-0.000995016
-0.00136356
-0.000886992
-0.00065588
-0.000640163
-0.000607944
-0.000591452
-0.000573465
-0.000561789
-0.000552017
-0.000546879
-0.000543378
-0.000539181
-0.000527484
-0.000491702
-0.000526019
-0.000544582
-0.000542638
-0.000521542
-0.000475834
-0.000409188
-0.000323833
-0.00022308
-0.000110498
9.21203e-06
0.000132524
0.000255467
0.000374426
0.000486364
0.00058882
0.000680014
0.000758878
0.000824847
0.000878002
0.000918551
0.000947145
0.000964487
0.000971501
0.000968943
0.000957855
0.000938913
0.000913075
0.000880719
0.000842687
0.000799121
0.000750822
0.000697543
0.000640075
0.000577679
0.000511435
0.000439688
0.00036423
0.00028167
0.000195334
9.81812e-05
-3.73164e-06
-0.000127035
-0.000260424
-0.000433357
-0.000659134
-0.000993702
-0.00136234
-0.000885896
-0.000654819
-0.000639167
-0.000606967
-0.00059038
-0.000572259
-0.000560444
-0.000550618
-0.000545528
-0.000542149
-0.000538131
-0.000526631
-0.000491056
-0.000526114
-0.000544462
-0.000542438
-0.000521265
-0.000475256
-0.000408253
-0.000322603
-0.000221585
-0.000109039
1.06545e-05
0.000133884
0.000256672
0.000375426
0.000487124
0.000589335
0.000680245
0.000758807
0.000824451
0.000877304
0.000917582
0.000945954
0.000963104
0.000969977
0.000967311
0.000956141
0.000937111
0.000911185
0.000878716
0.000840582
0.000796887
0.000748469
0.000695022
0.00063742
0.000574843
0.000508459
0.000436468
0.000360722
0.000277706
0.000190651
9.28701e-05
-1.04857e-05
-0.000131883
-0.000266771
-0.000436764
-0.000664487
-0.000960845
-0.00131367
-0.000899099
-0.000661071
-0.000640837
-0.000609227
-0.000592625
-0.000574669
-0.000562936
-0.000553045
-0.000547838
-0.000544549
-0.00054118
-0.000531477
-0.000495178
-0.000526481
-0.000544704
-0.000542621
-0.000521417
-0.000475405
-0.000408418
-0.000322802
-0.000221824
-0.000109328
1.03161e-05
0.0001335
0.000256246
0.000374959
0.000486613
0.00058879
0.000679694
0.000758297
0.000824017
0.000876958
0.00091732
0.000945763
0.000962974
0.000969891
0.000967253
0.000956111
0.000937122
0.000911256
0.000878868
0.000840827
0.000797236
0.000748936
0.000695623
0.000638159
0.000575718
0.000509479
0.000437665
0.00036218
0.000279549
0.000193048
9.58866e-05
-6.96438e-06
-0.00012913
-0.000264741
-0.000435171
-0.000663146
-0.000959514
-0.00131244
-0.000898005
-0.000660014
-0.000639839
-0.000608235
-0.000591535
-0.000573447
-0.000561588
-0.00055166
-0.000546514
-0.000543355
-0.000540163
-0.000530654
-0.000494559
-0.000528071
-0.000545762
-0.000543817
-0.000521796
-0.00047547
-0.000408223
-0.000322617
-0.000221885
-0.000109785
9.42249e-06
0.000132098
0.000254307
0.00037251
0.000483687
0.000585451
0.000675976
0.000754251
0.000819675
0.00087239
0.000912586
0.000940945
0.000958115
0.00096505
0.000962465
0.000951407
0.00093249
0.000906689
0.000874331
0.000836324
0.000792729
0.000744432
0.000691053
0.000633559
0.000571021
0.000504719
0.000432746
0.000357
0.000274067
0.000186762
8.94225e-05
-1.50451e-05
-0.000134539
-0.00027334
-0.000436538
-0.00066981
-0.000914241
-0.00124957
-0.000899429
-0.000666525
-0.000640539
-0.000609831
-0.000593199
-0.000575327
-0.000563533
-0.000553534
-0.00054823
-0.000545216
-0.000542918
-0.000535786
-0.000500349
-0.000528433
-0.000546005
-0.000544003
-0.000521952
-0.000475624
-0.000408391
-0.000322817
-0.000222125
-0.000110072
9.08686e-06
0.000131718
0.000253888
0.00037205
0.000483187
0.000584918
0.000675439
0.000753752
0.000819249
0.000872049
0.000912326
0.000940753
0.000957982
0.000964962
0.000962406
0.000951378
0.000932502
0.000906761
0.00087448
0.000836564
0.000793073
0.000744891
0.000691644
0.000634285
0.000571881
0.000505724
0.000433927
0.000358433
0.000275872
0.000189081
9.22414e-05
-1.20468e-05
-0.00013194
-0.000271344
-0.000434948
-0.000668466
-0.000912919
-0.00124835
-0.000898336
-0.000665472
-0.000639538
-0.000608822
-0.000592091
-0.000574093
-0.000562191
-0.000552172
-0.000546943
-0.000544065
-0.000541941
-0.000534999
-0.00049976
-0.000531613
-0.000548202
-0.000546551
-0.000522841
-0.000476296
-0.000408981
-0.00032376
-0.000223674
-0.000112384
5.98477e-06
0.000127773
0.000249121
0.000366532
0.000477008
0.000578181
0.000668237
0.000746175
0.00081138
0.000863982
0.000904156
0.000932579
0.000949867
0.000956975
0.000954588
0.000943764
0.000925084
0.00089953
0.000867397
0.000829634
0.000786248
0.000738179
0.000684962
0.000627669
0.000565251
0.000499111
0.000427229
0.000351534
0.000268778
0.000181221
8.44889e-05
-2.11638e-05
-0.000138348
-0.000280926
-0.00043577
-0.000673746
-0.000871049
-0.00118154
-0.000890116
-0.000670596
-0.00064049
-0.00061022
-0.000593712
-0.000575942
-0.000564077
-0.000553909
-0.000548481
-0.000545808
-0.000544801
-0.000540793
-0.00050781
-0.000531969
-0.000548445
-0.000546741
-0.000523003
-0.000476455
-0.000409153
-0.000323962
-0.000223914
-0.00011267
5.65227e-06
0.000127399
0.000248709
0.000366083
0.00047652
0.000577665
0.000667718
0.000745692
0.000810964
0.000863648
0.000903898
0.000932389
0.000949734
0.000956885
0.000954529
0.000943736
0.000925097
0.000899602
0.000867545
0.000829871
0.000786587
0.00073863
0.000685541
0.000628379
0.000566094
0.000500098
0.000428391
0.000352939
0.000270536
0.000183447
8.70963e-05
-1.85798e-05
-0.000135932
-0.000278981
-0.000434187
-0.000672402
-0.000869739
-0.00118032
-0.000889022
-0.000669544
-0.000639484
-0.000609193
-0.00059259
-0.000574703
-0.000562749
-0.00055258
-0.000547238
-0.000544704
-0.000543868
-0.000540043
-0.000507251
-0.000536492
-0.00055166
-0.000550197
-0.00052435
-0.000477708
-0.000410443
-0.000325772
-0.000226455
-0.000116093
1.33568e-06
0.000122153
0.000242576
0.000359133
0.00046885
0.00056938
0.000658917
0.000736467
0.000801413
0.000853863
0.000893984
0.000922445
0.000939842
0.000947112
0.000944928
0.000934345
0.00091592
0.000890633
0.000858755
0.00082126
0.000778122
0.000730307
0.000677295
0.000620228
0.000557978
0.00049202
0.000420281
0.000344665
0.000262116
0.000174396
7.82268e-05
-2.82573e-05
-0.000143483
-0.000288271
-0.000435173
-0.000673292
-0.000833283
-0.00111386
-0.000875463
-0.000672966
-0.000638977
-0.00061008
-0.000594049
-0.000576475
-0.000564537
-0.000554131
-0.000548531
-0.000546258
-0.000546715
-0.00054625
-0.000517421
-0.000536838
-0.000551901
-0.00055039
-0.000524517
-0.000477872
-0.000410621
-0.000325976
-0.000226696
-0.000116377
1.00661e-06
0.000121785
0.000242171
0.000358694
0.000468377
0.000568882
0.000658417
0.000736002
0.000801011
0.000853536
0.000893731
0.000922257
0.000939708
0.000947021
0.000944869
0.000934318
0.000915935
0.000890705
0.000858901
0.000821493
0.000778454
0.00073075
0.00067786
0.00062092
0.000558803
0.000492988
0.00042142
0.000346039
0.000263822
0.000176518
8.06205e-05
-2.60088e-05
-0.000141265
-0.000286391
-0.000433606
-0.000671948
-0.000831986
-0.00111264
-0.000874368
-0.000671915
-0.000637963
-0.000609038
-0.000592916
-0.000575238
-0.00056323
-0.00055284
-0.000547338
-0.000545205
-0.000545828
-0.000545537
-0.000516893
-0.000542136
-0.000556249
-0.000554234
-0.000526355
-0.000479611
-0.000412364
-0.00032823
-0.000229592
-0.000120069
-3.48142e-06
0.000116456
0.000236042
0.000351801
0.000460791
0.000560684
0.000649681
0.000726803
0.000791434
0.000843666
0.000883658
0.000912073
0.000929503
0.000936856
0.000934807
0.000924395
0.000906174
0.000881101
0.000849441
0.000812175
0.000769263
0.000721671
0.000668859
0.000611988
0.000549922
0.00048412
0.000412548
0.000337006
0.000254682
0.000166868
7.12146e-05
-3.57334e-05
-0.000149358
-0.000294762
-0.000434989
-0.000667539
-0.000798797
-0.00105292
-0.000858473
-0.000672846
-0.00063614
-0.000609214
-0.000593769
-0.00057682
-0.000564839
-0.000554142
-0.000548295
-0.000546429
-0.000548438
-0.000551617
-0.00052842
-0.000542471
-0.000556487
-0.000554428
-0.000526527
-0.000479782
-0.000412547
-0.000328436
-0.000229834
-0.000120351
-3.80664e-06
0.000116094
0.000235647
0.000351374
0.000460334
0.000560206
0.000649203
0.000726358
0.000791047
0.00084335
0.000883411
0.000911887
0.000929369
0.000936764
0.000934747
0.00092437
0.000906191
0.000881174
0.000849586
0.000812404
0.000769588
0.000722105
0.000669411
0.000612663
0.000550727
0.000485066
0.000413662
0.000338345
0.00025633
0.000168879
7.34018e-05
-3.37569e-05
-0.000147337
-0.000292959
-0.000433446
-0.000666199
-0.000797512
-0.00105171
-0.000857378
-0.000671796
-0.000635118
-0.000608159
-0.00059263
-0.000575591
-0.000563561
-0.000552895
-0.000547153
-0.000545428
-0.000547597
-0.000550943
-0.000527923
-0.000548016
-0.000561955
-0.000558336
-0.00052882
-0.000481862
-0.000414549
-0.000330818
-0.000232677
-0.000123808
-7.88539e-06
0.000111335
0.000230227
0.000345286
0.000453614
0.000552895
0.000641346
0.000718008
0.00078227
0.000834216
0.000873994
0.000902276
0.000919651
0.000926994
0.000924992
0.000914666
0.000896577
0.000871647
0.000840147
0.000803045
0.000760319
0.000712899
0.000660263
0.000603544
0.000541655
0.000475972
0.00040458
0.00032909
0.000247024
0.000159147
6.40393e-05
-4.31285e-05
-0.000155211
-0.000300206
-0.000434431
-0.000658172
-0.000767338
-0.001007
-0.000838806
-0.000670457
-0.000631741
-0.000607331
-0.000592451
-0.000576677
-0.000564926
-0.000553943
-0.000547755
-0.000546246
-0.000549811
-0.000556478
-0.000540053
-0.000548339
-0.000562189
-0.000558533
-0.000528997
-0.000482038
-0.000414737
-0.000331027
-0.000232919
-0.000124087
-8.20634e-06
0.00011098
0.000229841
0.000344872
0.000453173
0.000552438
0.000640892
0.000717584
0.0007819
0.000833911
0.000873753
0.000902094
0.000919517
0.000926902
0.000924933
0.000914642
0.000896596
0.000871721
0.00084029
0.000803271
0.000760638
0.000713322
0.0006608
0.000604199
0.000542438
0.000476894
0.000405667
0.000330391
0.000248609
0.000161043
6.60328e-05
-4.13732e-05
-0.000153378
-0.00029849
-0.00043292
-0.00065684
-0.000766064
-0.0010058
-0.000837712
-0.000669406
-0.000630713
-0.000606265
-0.000591311
-0.000575463
-0.000563683
-0.000552744
-0.000546665
-0.000545295
-0.000549016
-0.000555842
-0.000539586
-0.000553812
-0.000568425
-0.000562364
-0.000531652
-0.000484332
-0.000416861
-0.000333358
-0.000235519
-0.000127099
-1.16583e-05
0.00010702
0.000225353
0.000339809
0.000447532
0.000546229
0.000634132
0.000710309
0.000774159
0.000825756
0.000865245
0.000893323
0.000910562
0.000917815
0.000915779
0.000905463
0.00088744
0.000862589
0.000831191
0.000794197
0.000751616
0.000704319
0.000651832
0.000595223
0.000533504
0.000467907
0.00039671
0.000321249
0.000239491
0.000151567
5.70949e-05
-5.0134e-05
-0.000160524
-0.000304494
-0.000432793
-0.000646872
-0.000738751
-0.00097128
-0.000815333
-0.000667314
-0.00062588
-0.000604025
-0.000590423
-0.000575775
-0.000564701
-0.000553572
-0.000546971
-0.000545717
-0.000550762
-0.000560556
-0.000551737
-0.000554121
-0.000568655
-0.000562561
-0.000531833
-0.000484513
-0.000417052
-0.000333569
-0.00023576
-0.000127376
-1.19745e-05
0.000106673
0.000224977
0.000339408
0.000447109
0.000545794
0.000633701
0.000709907
0.000773806
0.000825463
0.000865013
0.000893145
0.00091043
0.000917723
0.000915721
0.000905441
0.000887461
0.000862664
0.000831333
0.000794418
0.000751927
0.000704732
0.000652354
0.000595859
0.000534264
0.000468804
0.000397767
0.000322509
0.00024101
0.000153345
5.89109e-05
-4.85602e-05
-0.000158866
-0.000302871
-0.000431321
-0.000645553
-0.00073749
-0.000970089
-0.00081424
-0.000666263
-0.000624846
-0.000602954
-0.000589287
-0.000574582
-0.000563497
-0.000552423
-0.000545933
-0.000544817
-0.000550011
-0.000559958
-0.000551299
-0.00055934
-0.000575207
-0.000566252
-0.000534734
-0.000486904
-0.000419193
-0.000335745
-0.000238032
-0.000129881
-1.47742e-05
0.00010351
0.00022139
0.000335293
0.000442452
0.000540576
0.000627924
0.000703599
0.000767007
0.000818208
0.000857361
0.000885187
0.000902236
0.000909337
0.000907202
0.00089684
0.000878836
0.000854015
0.000822672
0.000785741
0.000743272
0.000696065
0.000643704
0.000587176
0.000525621
0.00046009
0.000389104
0.000313664
0.000232265
0.000144324
5.05883e-05
-5.65418e-05
-0.000165053
-0.000307511
-0.000429825
-0.000634293
-0.000711893
-0.0009347
-0.000791484
-0.000664742
-0.000619629
-0.000599212
-0.000587791
-0.000574152
-0.000563976
-0.000553007
-0.000546012
-0.000544897
-0.000551271
-0.000563694
-0.000563023
-0.000559634
-0.000575432
-0.00056645
-0.000534919
-0.000487088
-0.000419386
-0.000335957
-0.000238274
-0.000130156
-1.50851e-05
0.000103171
0.000221025
0.000334907
0.000442046
0.000540162
0.000627517
0.000703219
0.000766672
0.000817928
0.000857137
0.000885013
0.000902106
0.000909245
0.000907145
0.00089682
0.00087886
0.000854091
0.000822813
0.000785959
0.000743577
0.000696468
0.000644211
0.000587792
0.000526358
0.000460961
0.000390129
0.00031488
0.000233714
0.000145986
5.22442e-05
-5.51179e-05
-0.000163552
-0.000305982
-0.000428397
-0.000632991
-0.000710645
-0.000933517
-0.000790392
-0.00066369
-0.000618591
-0.00059814
-0.000586665
-0.000572985
-0.000562814
-0.00055191
-0.000545025
-0.000544043
-0.000550561
-0.000563131
-0.000562614
-0.000564432
-0.000581941
-0.00056994
-0.000537925
-0.000489453
-0.000421441
-0.000337897
-0.000240172
-0.000132153
-1.7278e-05
0.00010071
0.000218235
0.000331654
0.000438281
0.000535834
0.000622611
0.000697748
0.000760662
0.000811397
0.00085015
0.000877667
0.000894488
0.000901402
0.000899131
0.00088869
0.000870687
0.000845871
0.000814555
0.000777661
0.00073529
0.000688156
0.000635906
0.000579446
0.000518052
0.000452586
0.000381825
0.000306421
0.000225421
0.000137532
4.46089e-05
-6.22089e-05
-0.000168705
-0.000309141
-0.000425541
-0.000620414
-0.000685638
-0.00089286
-0.000774424
-0.000660114
-0.000614432
-0.000593326
-0.000583842
-0.000572227
-0.000562489
-0.000552084
-0.000544871
-0.000543814
-0.000551342
-0.000565809
-0.000573576
-0.000564712
-0.000582161
-0.000570138
-0.000538112
-0.00048964
-0.000421637
-0.00033811
-0.000240412
-0.000132424
-1.75829e-05
0.000100379
0.000217881
0.000331282
0.000437893
0.000535441
0.000622226
0.000697389
0.000760344
0.000811131
0.000849934
0.000877498
0.000894361
0.000901312
0.000899076
0.000888673
0.000870712
0.000845949
0.000814695
0.000777875
0.000735588
0.000688548
0.000636397
0.000580042
0.000518766
0.00045343
0.000382816
0.00030759
0.000226798
0.00013908
4.61221e-05
-6.09098e-05
-0.000167344
-0.000307706
-0.000424163
-0.000619134
-0.000684406
-0.000891687
-0.000773335
-0.000659063
-0.000613393
-0.000592257
-0.000582731
-0.000571091
-0.000561371
-0.000551039
-0.000543931
-0.000543004
-0.00055067
-0.000565278
-0.000573192
-0.000568893
-0.00058834
-0.000573338
-0.000541044
-0.000491839
-0.000423482
-0.000339726
-0.000241884
-0.000133855
-1.90756e-05
9.86934e-05
0.000216098
0.000329276
0.000435537
0.000532592
0.000618793
0.000693303
0.000755578
0.000805656
0.0008438
0.000870775
0.000887214
0.000893868
0.000891407
0.000880837
0.000862804
0.000837991
0.000806693
0.000769835
0.000727573
0.000680519
0.000628381
0.000571992
0.000510774
0.000445389
0.000374871
0.000299541
0.000218977
0.000131241
3.91889e-05
-6.70558e-05
-0.000171448
-0.000309308
-0.000420013
-0.000605114
-0.000659639
-0.000847474
-0.000764817
-0.000650514
-0.000610737
-0.000587431
-0.00057851
-0.000569623
-0.000560343
-0.0005505
-0.00054342
-0.000542418
-0.000550974
-0.000566863
-0.000583178
-0.000569158
-0.000588554
-0.000573535
-0.000541232
-0.000492027
-0.000423679
-0.000339938
-0.000242123
-0.000134122
-1.9374e-05
9.83714e-05
0.000215755
0.000328918
0.000435166
0.000532219
0.00061843
0.000692965
0.000755278
0.000805402
0.000843593
0.000870612
0.00088709
0.00089378
0.000891354
0.000880821
0.000862831
0.000838069
0.000806832
0.000770045
0.000727864
0.0006809
0.000628857
0.000572569
0.000511464
0.000446205
0.000375828
0.000300661
0.000220282
0.000132681
4.05761e-05
-6.58611e-05
-0.000170206
-0.000307965
-0.000418688
-0.000603859
-0.000658424
-0.000846312
-0.000763733
-0.000649464
-0.000609701
-0.00058637
-0.000577418
-0.00056852
-0.000559271
-0.000549505
-0.000542528
-0.000541649
-0.000550337
-0.000566363
-0.000582819
-0.000572529
-0.000594134
-0.000576312
-0.000543869
-0.000493884
-0.00042515
-0.00034105
-0.000243005
-0.000134677
-1.96029e-05
9.81411e-05
0.000215526
0.000328742
0.000434858
0.000531557
0.00061726
0.000691131
0.000752682
0.000801971
0.000839342
0.000865474
0.000881145
0.000887236
0.000884359
0.000873441
0.000855157
0.000830269
0.000798953
0.000762109
0.000719953
0.000673004
0.000620995
0.000564701
0.000503693
0.000438431
0.000368187
0.000292987
0.000212909
0.000125447
3.43283e-05
-7.1063e-05
-0.000173279
-0.000308013
-0.000413308
-0.00058842
-0.000634084
-0.000801446
-0.000755851
-0.000640914
-0.000606452
-0.000582255
-0.000572436
-0.00056538
-0.000557741
-0.000548214
-0.000541472
-0.000540557
-0.000550102
-0.00056684
-0.00059169
-0.00057278
-0.000594343
-0.000576508
-0.000544058
-0.000494074
-0.000425348
-0.000341262
-0.000243241
-0.00013494
-1.98945e-05
9.78282e-05
0.000215195
0.000328397
0.000434504
0.000531204
0.000616917
0.000690813
0.000752398
0.00080173
0.000839144
0.000865318
0.000881025
0.000887152
0.00088431
0.000873428
0.000855187
0.000830348
0.000799091
0.000762315
0.000720237
0.000673374
0.000621456
0.000565258
0.000504359
0.000439217
0.000369108
0.000294058
0.000214142
0.000126785
3.5605e-05
-6.99561e-05
-0.000172139
-0.000306756
-0.000412038
-0.000587195
-0.000632888
-0.000800298
-0.000754773
-0.00063987
-0.000605421
-0.000581204
-0.000571367
-0.000564314
-0.000556717
-0.000547269
-0.000540624
-0.000539826
-0.000549497
-0.000566367
-0.000591354
-0.000575174
-0.000599059
-0.000578664
-0.00054613
-0.000495332
-0.000426191
-0.000341473
-0.00024306
-0.000134363
-1.87029e-05
9.93759e-05
0.000216673
0.000329809
0.000435658
0.000531947
0.000617164
0.000690464
0.000751383
0.00080003
0.00083679
0.000862226
0.000877089
0.000882453
0.000878975
0.00086749
0.000848568
0.000823225
0.000791692
0.000754684
0.000712443
0.000665537
0.000613645
0.000557451
0.000496673
0.000431586
0.000361662
0.000286667
0.000207143
0.000120101
2.99935e-05
-7.42542e-05
-0.000174221
-0.000305323
-0.000405501
-0.00057048
-0.00060922
-0.00075668
-0.000742318
-0.000637317
-0.000598624
-0.000577543
-0.000566018
-0.000559523
-0.000554043
-0.00054551
-0.000538846
-0.000538044
-0.000548553
-0.000565687
-0.000599033
-0.000575411
-0.000599262
-0.000578858
-0.000546319
-0.000495522
-0.000426389
-0.000341683
-0.000243293
-0.000134621
-1.89871e-05
9.90723e-05
0.000216353
0.000329478
0.000435321
0.000531613
0.000616841
0.000690164
0.000751116
0.000799802
0.000836602
0.000862077
0.000876975
0.000882373
0.000878929
0.000867482
0.000848601
0.000823306
0.00079183
0.000754887
0.00071272
0.000665896
0.000614092
0.00055799
0.000497315
0.000432342
0.000362545
0.000287688
0.000208304
0.000121345
3.11736e-05
-7.32212e-05
-0.000173166
-0.000304146
-0.000404286
-0.000569288
-0.000608046
-0.000755547
-0.000741249
-0.000636282
-0.0005976
-0.000576509
-0.000564975
-0.000558494
-0.000553065
-0.000544612
-0.00053804
-0.000537347
-0.000547978
-0.000565239
-0.000598717
-0.000576611
-0.00060288
-0.000580109
-0.000547457
-0.000495774
-0.000426219
-0.000340952
-0.000241893
-0.000132835
-1.68645e-05
0.000101465
0.000218555
0.00033123
0.000436451
0.000532077
0.000616644
0.000689312
0.000749644
0.000797797
0.000834146
0.000859245
0.000873756
0.000878739
0.000874907
0.000863064
0.000843652
0.000817727
0.000785831
0.000748497
0.000705845
0.000658632
0.00060669
0.000550467
0.000489776
0.000424821
0.000355225
0.000280492
0.000201572
0.000115108
2.61092e-05
-7.66908e-05
-0.000174313
-0.000301329
-0.000396694
-0.000551487
-0.000585146
-0.000714134
-0.000723546
-0.000636856
-0.000589882
-0.000571781
-0.000559408
-0.000552686
-0.000548574
-0.000542013
-0.000535614
-0.000534756
-0.000546117
-0.000563248
-0.000605225
-0.000576836
-0.000603078
-0.000580301
-0.000547645
-0.000495964
-0.000426415
-0.00034116
-0.000242122
-0.000133088
-1.71411e-05
0.000101171
0.000218247
0.000330913
0.00043613
0.000531761
0.00061634
0.00068903
0.000749392
0.000797581
0.000833967
0.000859102
0.000873647
0.000878663
0.000874866
0.00086306
0.000843688
0.00081781
0.000785969
0.000748698
0.000706117
0.000658982
0.000607123
0.000550988
0.000490395
0.000425549
0.000356071
0.000281463
0.000202665
0.000116264
2.72051e-05
-7.572e-05
-0.00017333
-0.000300224
-0.000395534
-0.00055033
-0.000583996
-0.000713018
-0.000722488
-0.000635831
-0.00058887
-0.000570765
-0.000558393
-0.000551696
-0.000547642
-0.00054116
-0.000534849
-0.000534093
-0.000545569
-0.000562824
-0.000604928
-0.000576361
-0.000605265
-0.000580292
-0.00054739
-0.000495113
-0.000425062
-0.000339349
-0.000239677
-0.000130269
-1.44099e-05
0.00010359
0.000220114
0.000331981
0.000436298
0.000531027
0.000614734
0.000686604
0.000746271
0.000793903
0.000829856
0.000854704
0.000869112
0.000874039
0.000870191
0.000858349
0.000838987
0.000812981
0.000780997
0.000743551
0.000700668
0.000653078
0.000600974
0.000544605
0.000483757
0.000418664
0.000349231
0.000274699
0.000196252
0.000110435
2.26014e-05
-7.84677e-05
-0.000173618
-0.000296125
-0.000386989
-0.00053164
-0.00056181
-0.000674279
-0.00070107
-0.000634059
-0.000585631
-0.000563308
-0.000552987
-0.000545322
-0.000541755
-0.000537124
-0.000531971
-0.000530869
-0.000542652
-0.00055941
-0.000610337
-0.000576576
-0.000605458
-0.000580482
-0.000547577
-0.000495302
-0.000425257
-0.000339556
-0.000239903
-0.000130516
-1.46788e-05
0.000103305
0.000219817
0.000331677
0.000435993
0.000530727
0.000614447
0.000686339
0.000746034
0.000793699
0.000829686
0.000854568
0.000869008
0.000873968
0.000870154
0.000858348
0.000839027
0.000813066
0.000781135
0.000743749
0.000700935
0.00065342
0.000601395
0.000545109
0.000484355
0.000419364
0.00035004
0.000275622
0.00019728
0.000111512
2.36237e-05
-7.75498e-05
-0.000172693
-0.000295086
-0.000385882
-0.000530519
-0.000560686
-0.000673184
-0.000700026
-0.000633048
-0.000584635
-0.000562314
-0.000552003
-0.000544371
-0.000540867
-0.000536315
-0.000531244
-0.000530237
-0.00054213
-0.000559008
-0.000610056
-0.000573847
-0.000605105
-0.000578991
-0.000545807
-0.000493049
-0.000422414
-0.000336127
-0.000236262
-0.000126929
-1.15607e-05
0.000105672
0.000221228
0.000331975
0.000435156
0.000528763
0.000611408
0.000682328
0.000741221
0.000788237
0.00082373
0.00084828
0.000862563
0.000867472
0.000863693
0.000851978
0.000832872
0.000807159
0.00077544
0.000738219
0.00069561
0.000648147
0.000596158
0.000539859
0.00047903
0.000413819
0.000344467
0.000270112
0.000191889
0.000106523
1.96657e-05
-7.95914e-05
-0.00017221
-0.000289815
-0.000376471
-0.000511147
-0.000539109
-0.000637262
-0.000676433
-0.000626898
-0.000584595
-0.000555022
-0.000545627
-0.000537836
-0.000534456
-0.000531015
-0.000527695
-0.000526712
-0.000538324
-0.000554422
-0.000613819
-0.000574052
-0.000605293
-0.000579178
-0.000545993
-0.000493236
-0.000422607
-0.000336331
-0.000236484
-0.000127171
-1.18219e-05
0.000105396
0.000220943
0.000331685
0.000434865
0.000528479
0.000611137
0.000682078
0.000740997
0.000788044
0.000823569
0.000848151
0.000862465
0.000867405
0.000863659
0.000851981
0.000832914
0.000807245
0.000775578
0.000738414
0.000695871
0.00064848
0.000596566
0.000540347
0.000479607
0.000414492
0.000345241
0.000270988
0.000192855
0.000107529
2.06242e-05
-7.87187e-05
-0.000171333
-0.000288834
-0.000375415
-0.000510065
-0.000538014
-0.000636188
-0.000675406
-0.000625903
-0.000583617
-0.000554053
-0.000544676
-0.000536925
-0.000533611
-0.000530247
-0.000527006
-0.000526112
-0.000537827
-0.000554039
-0.000613553
-0.000570175
-0.000600857
-0.000575467
-0.000542174
-0.000488722
-0.000417642
-0.000331113
-0.00023151
-0.000122708
-8.22892e-06
0.000107862
0.000222084
0.000331414
0.000433193
0.000525443
0.000606848
0.000676701
0.00073472
0.000781039
0.000816012
0.000840212
0.000854309
0.000859148
0.000855412
0.000843829
0.000824977
0.000799601
0.000768247
0.000731392
0.000689244
0.000642261
0.000590723
0.000534825
0.000474455
0.000409621
0.000340664
0.000266763
0.000188977
0.000104178
1.81116e-05
-7.95814e-05
-0.000170036
-0.000282496
-0.000365212
-0.000490221
-0.000516922
-0.000602955
-0.00065062
-0.000615941
-0.000582376
-0.000550548
-0.000536614
-0.00053047
-0.000526961
-0.000524042
-0.000522415
-0.000522169
-0.000533911
-0.000548691
-0.000613464
-0.000570372
-0.00060104
-0.000575651
-0.000542358
-0.000488908
-0.000417834
-0.000331315
-0.000231728
-0.000122944
-8.48242e-06
0.000107595
0.00022181
0.000331135
0.000432915
0.000525173
0.000606592
0.000676465
0.000734509
0.000780856
0.00081586
0.00084009
0.000854217
0.000859086
0.000855383
0.000843835
0.000825022
0.000799689
0.000768384
0.000731585
0.000689499
0.000642585
0.000591118
0.000535296
0.00047501
0.000410266
0.000341402
0.000267593
0.000189886
0.000105121
1.90151e-05
-7.87468e-05
-0.000169199
-0.000281566
-0.000364203
-0.000489176
-0.000515857
-0.000601905
-0.000649612
-0.000614965
-0.000581419
-0.000549606
-0.000535696
-0.000529599
-0.000526157
-0.000523314
-0.000521763
-0.000521599
-0.000533437
-0.000548326
-0.000613209
-0.000564342
-0.000594582
-0.000569348
-0.000535548
-0.000481732
-0.000410572
-0.00032428
-0.000225338
-0.000117499
-4.35335e-06
0.000110189
0.000222742
0.000330352
0.000430436
0.000521105
0.000601117
0.000669786
0.000726841
0.0007724
0.000806816
0.000830644
0.000844534
0.000849288
0.000845586
0.000834138
0.000815527
0.000790459
0.000759465
0.000723006
0.000681338
0.000634894
0.000583915
0.000528572
0.000468855
0.000404727
0.000336521
0.000263436
0.000186605
0.000103017
1.81236e-05
-7.77762e-05
-0.000166583
-0.000274191
-0.000353258
-0.000469043
-0.0004951
-0.000571102
-0.000624205
-0.000602254
-0.000577073
-0.000548299
-0.000529365
-0.00052225
-0.000519279
-0.000516204
-0.000516041
-0.000516715
-0.000529446
-0.000541415
-0.000610097
-0.000564533
-0.00059476
-0.000569528
-0.00053573
-0.000481916
-0.000410762
-0.00032448
-0.000225553
-0.00011773
-4.59925e-06
0.000109931
0.000222478
0.000330085
0.000430172
0.000520848
0.000600875
0.000669563
0.000726642
0.000772227
0.000806672
0.000830529
0.000844448
0.000849232
0.000845562
0.000834148
0.000815574
0.000790549
0.000759601
0.000723197
0.000681589
0.000635209
0.000584298
0.000529027
0.000469389
0.000405345
0.000337225
0.000264222
0.000187461
0.000103901
1.89783e-05
-7.69744e-05
-0.00016578
-0.000273306
-0.000352294
-0.000468037
-0.000494066
-0.000570077
-0.000623219
-0.000601299
-0.00057614
-0.000547386
-0.000528481
-0.000521418
-0.000518514
-0.000515514
-0.000515424
-0.000516176
-0.000528995
-0.000541066
-0.000609851
-0.000554996
-0.000586608
-0.000560794
-0.000525993
-0.000472277
-0.000401406
-0.000315725
-0.000217837
-0.000111422
-3.25631e-08
0.00011258
0.00022311
0.000328668
0.000426788
0.00051568
0.000594145
0.000661513
0.000717519
0.000762268
0.000796104
0.000819557
0.000833252
0.000837947
0.000834311
0.000823031
0.000804688
0.000779945
0.000749327
0.000713292
0.000672117
0.000626205
0.000575804
0.00052107
0.000462061
0.000398727
0.000331415
0.000259348
0.000183729
0.000101797
1.86383e-05
-7.45876e-05
-0.000161474
-0.000264823
-0.000340638
-0.000447764
-0.000473498
-0.000541403
-0.000597562
-0.000586539
-0.000568857
-0.000545247
-0.000525269
-0.000513836
-0.000510778
-0.000507611
-0.000508569
-0.000509897
-0.000524432
-0.000533157
-0.000606154
-0.000555183
-0.00058678
-0.000560971
-0.000526173
-0.000472459
-0.000401594
-0.000315922
-0.000218047
-0.000111647
-2.70809e-07
0.000112332