/*--------------------------------*- C++ -*----------------------------------*\
| =========                 |                                                 |
| \\      /  F ield         | OpenFOAM: The Open Source CFD Toolbox           |
|  \\    /   O peration     | Version:  5.x                                   |
|   \\  /    A nd           | Web:      www.OpenFOAM.org                      |
|    \\/     M anipulation  |                                                 |
\*---------------------------------------------------------------------------*/
FoamFile
{
    version     2.0;
    format      ascii;
    class       surfaceScalarField;
    location    "300/surface";
    object      phiMean;
}
// * * * * * * * * * * * * * * * * * * * * * * * * * * * * * * * * * * * * * //

dimensions      [0 3 -1 0 0 0 0];

internalField   nonuniform List<scalar> 
14220
(
-1.46966e-10
1.46595e-09
-6.00829e-10
1.93203e-09
-7.32159e-10
1.7074e-09
-1.14661e-09
2.07629e-09
-1.48219e-09
1.91928e-09
-1.6335e-09
1.58708e-09
-1.676e-09
1.26763e-09
-2.07105e-09
1.35073e-09
-2.34742e-09
9.29318e-10
-2.22923e-09
2.23365e-10
-2.04423e-09
-1.62608e-10
-1.76485e-09
-5.67455e-10
-1.50795e-09
-8.30646e-10
-1.22492e-09
-1.11187e-09
-9.82646e-10
-1.28773e-09
-7.64859e-10
-1.43821e-09
-5.72807e-10
-1.54719e-09
-4.27436e-10
-1.59554e-09
-3.06996e-10
-1.63377e-09
-1.96475e-10
-1.65557e-09
-7.09829e-11
-1.67823e-09
5.30945e-11
-1.66319e-09
1.75721e-10
-1.63409e-09
2.83876e-10
-1.57724e-09
3.81404e-10
-1.51823e-09
4.60635e-10
-1.44256e-09
5.27685e-10
-1.37369e-09
5.72724e-10
-1.28784e-09
6.03306e-10
-1.21402e-09
6.31271e-10
-1.1454e-09
6.67073e-10
-1.0964e-09
7.00493e-10
-1.02845e-09
7.33808e-10
-9.764e-10
7.65066e-10
-9.07834e-10
7.97509e-10
-8.65976e-10
8.26513e-10
-7.90896e-10
8.6039e-10
-7.67394e-10
8.86976e-10
-6.72743e-10
9.2707e-10
-6.86331e-10
9.48267e-10
-5.42248e-10
1.01159e-09
-6.4415e-10
1.01582e-09
-3.70258e-10
1.14905e-09
-6.62175e-10
1.3326e-09
-2.69335e-10
5.17905e-09
-3.97289e-09
5.56314e-09
2.72131e-09
-1.62446e-09
1.99247e-08
-4.0652e-09
2.25371e-09
-2.12526e-09
-3.62801e-09
-1.36579e-09
-2.59688e-10
-1.16557e-09
2.41953e-10
-1.18262e-09
6.47921e-10
-1.08516e-09
4.7218e-10
-9.86626e-10
5.14891e-10
-8.40573e-10
4.60347e-10
-7.65943e-10
6.06845e-10
-7.53368e-10
7.63927e-10
-8.05005e-10
9.70304e-10
-8.51431e-10
1.05932e-09
5.00689e-11
-5.86498e-10
-1.46983e-10
1.46545e-09
-5.99772e-10
1.93037e-09
-7.28141e-10
1.704e-09
-1.14159e-09
2.07491e-09
-1.47704e-09
1.91892e-09
-1.62646e-09
1.58503e-09
-1.67105e-09
1.2697e-09
-2.06938e-09
1.35397e-09
-2.34643e-09
9.3e-10
-2.22719e-09
2.22426e-10
-2.04252e-09
-1.62128e-10
-1.76328e-09
-5.67153e-10
-1.50618e-09
-8.30654e-10
-1.22264e-09
-1.11211e-09
-9.80113e-10
-1.28762e-09
-7.62171e-10
-1.43794e-09
-5.69722e-10
-1.54723e-09
-4.24458e-10
-1.59518e-09
-3.04868e-10
-1.63278e-09
-1.95345e-10
-1.6545e-09
-7.03258e-11
-1.67771e-09
5.37114e-11
-1.66313e-09
1.76304e-10
-1.63403e-09
2.84411e-10
-1.5771e-09
3.81986e-10
-1.51812e-09
4.61155e-10
-1.44231e-09
5.27945e-10
-1.37324e-09
5.72664e-10
-1.28733e-09
6.03094e-10
-1.21369e-09
6.31231e-10
-1.14542e-09
6.67163e-10
-1.09639e-09
7.00551e-10
-1.02832e-09
7.33779e-10
-9.76241e-10
7.65016e-10
-9.07708e-10
7.97438e-10
-8.65766e-10
8.26382e-10
-7.90535e-10
8.60252e-10
-7.67083e-10
8.86743e-10
-6.72519e-10
9.26784e-10
-6.86852e-10
9.47952e-10
-5.44102e-10
1.01365e-09
-6.54066e-10
1.01667e-09
-3.69745e-10
1.14923e-09
-6.61061e-10
1.33254e-09
-2.67948e-10
5.27721e-09
-4.06896e-09
5.66144e-09
2.71888e-09
-1.62347e-09
2.00215e-08
-4.06554e-09
2.25658e-09
-2.12523e-09
-3.6283e-09
-1.36572e-09
-2.59322e-10
-1.16558e-09
2.42589e-10
-1.18262e-09
6.48183e-10
-1.08519e-09
4.721e-10
-9.86623e-10
5.14251e-10
-8.40648e-10
4.59622e-10
-7.66204e-10
6.06399e-10
-7.53295e-10
7.63021e-10
-8.04979e-10
9.69992e-10
-8.51655e-10
1.05955e-09
-5.86859e-10
-5.59702e-08
2.77429e-08
-1.17669e-07
6.36312e-08
-1.63348e-07
4.73856e-08
-1.98081e-07
3.68095e-08
-2.20598e-07
2.44366e-08
-2.32692e-07
1.36815e-08
-2.36521e-07
5.09655e-09
-2.33007e-07
-2.16312e-09
-2.22736e-07
-9.34173e-09
-2.06741e-07
-1.57724e-08
-1.85911e-07
-2.09927e-08
-1.60961e-07
-2.55169e-08
-1.33028e-07
-2.87636e-08
-1.0287e-07
-3.12699e-08
-7.14681e-08
-3.26897e-08
-3.95036e-08
-3.34028e-08
-7.6666e-09
-3.33842e-08
2.35667e-08
-3.28288e-08
5.38742e-08
-3.19413e-08
8.29059e-08
-3.06872e-08
1.10488e-07
-2.926e-08
1.36519e-07
-2.76945e-08
1.60972e-07
-2.60871e-08
1.83785e-07
-2.43899e-08
2.05043e-07
-2.27766e-08
2.24779e-07
-2.11789e-08
2.4321e-07
-1.98046e-08
2.60321e-07
-1.83987e-08
2.76334e-07
-1.72266e-08
2.91235e-07
-1.60472e-08
3.05332e-07
-1.51927e-08
3.18596e-07
-1.4293e-08
3.31285e-07
-1.36655e-08
3.43421e-07
-1.30433e-08
3.55289e-07
-1.27342e-08
3.66831e-07
-1.23331e-08
3.78777e-07
-1.2713e-08
3.90035e-07
-1.19306e-08
4.03964e-07
-1.46156e-08
4.14516e-07
-1.10941e-08
4.35669e-07
-2.17976e-08
4.41725e-07
-6.42622e-09
4.86496e-07
-4.54328e-08
4.74474e-07
1.17527e-08
6.07707e-07
-1.37206e-07
6.34477e-07
-2.40484e-08
1.55783e-07
4.98618e-07
-7.1656e-08
2.29693e-07
-6.67983e-08
-8.48567e-09
-4.75105e-08
-1.95475e-08
-4.51354e-08
-2.13319e-09
-4.24227e-08
-2.06473e-09
-3.92757e-08
-2.67486e-09
-3.67002e-08
-2.06055e-09
-3.59406e-08
-2.99279e-10
-4.05685e-08
5.2347e-09
-5.12222e-08
1.14177e-08
-6.41296e-08
1.38777e-08
-6.28753e-08
-1.95021e-10
-2.96912e-08
-3.37706e-08
-5.59661e-08
2.77403e-08
-1.17659e-07
6.36234e-08
-1.63336e-07
4.7381e-08
-1.98069e-07
3.68078e-08
-2.2059e-07
2.44395e-08
-2.32686e-07
1.36809e-08
-2.36517e-07
5.10104e-09
-2.33005e-07
-2.15741e-09
-2.22736e-07
-9.33902e-09
-2.06744e-07
-1.57704e-08
-1.85916e-07
-2.09896e-08
-1.60967e-07
-2.55162e-08
-1.33034e-07
-2.87636e-08
-1.02877e-07
-3.12696e-08
-7.14754e-08
-3.26888e-08
-3.95115e-08
-3.34019e-08
-7.67456e-09
-3.33842e-08
2.35586e-08
-3.28283e-08
5.38663e-08
-3.19405e-08
8.28981e-08
-3.06864e-08
1.10481e-07
-2.92602e-08
1.36513e-07
-2.76952e-08
1.60967e-07
-2.60881e-08
1.8378e-07
-2.43907e-08
2.0504e-07
-2.27776e-08
2.24777e-07
-2.11798e-08
2.4321e-07
-1.98055e-08
2.60322e-07
-1.83993e-08
2.76335e-07
-1.72274e-08
2.91238e-07
-1.60484e-08
3.05336e-07
-1.51939e-08
3.18601e-07
-1.42937e-08
3.31291e-07
-1.36662e-08
3.43427e-07
-1.30437e-08
3.55296e-07
-1.27348e-08
3.66839e-07
-1.23332e-08
3.78785e-07
-1.27137e-08
3.90044e-07
-1.19309e-08
4.03974e-07
-1.46174e-08
4.14525e-07
-1.10947e-08
4.35684e-07
-2.1813e-08
4.41739e-07
-6.42487e-09
4.86515e-07
-4.54373e-08
4.74493e-07
1.17539e-08
6.07753e-07
-1.37328e-07
6.34551e-07
-2.40797e-08
1.55809e-07
4.98763e-07
-7.16564e-08
2.29722e-07
-6.68008e-08
-8.48386e-09
-4.75112e-08
-1.95489e-08
-4.51372e-08
-2.13138e-09
-4.2424e-08
-2.06508e-09
-3.92753e-08
-2.67659e-09
-3.66974e-08
-2.06365e-09
-3.59357e-08
-3.02109e-10
-4.05676e-08
5.23838e-09
-5.12243e-08
1.14197e-08
-6.41329e-08
1.38786e-08
-6.28803e-08
-1.93101e-10
-3.37739e-08
-1.41349e-07
8.48752e-08
-2.41892e-07
1.64175e-07
-3.02873e-07
1.08366e-07
-3.40641e-07
7.45781e-08
-3.59193e-07
4.2988e-08
-3.62949e-07
1.74381e-08
-3.55632e-07
-2.22104e-09
-3.38687e-07
-1.91074e-08
-3.13712e-07
-3.43168e-08
-2.82044e-07
-4.7441e-08
-2.44748e-07
-5.82881e-08
-2.02823e-07
-6.74427e-08
-1.57537e-07
-7.40489e-08
-1.09922e-07
-7.88852e-08
-6.10561e-08
-8.15555e-08
-1.17266e-08
-8.27323e-08
3.72841e-08
-8.23949e-08
8.54862e-08
-8.1031e-08
1.32424e-07
-7.88786e-08
1.77709e-07
-7.59723e-08
2.21099e-07
-7.26499e-08
2.625e-07
-6.90962e-08
3.01803e-07
-6.53904e-08
3.38981e-07
-6.15678e-08
3.7404e-07
-5.78347e-08
4.07088e-07
-5.42275e-08
4.38254e-07
-5.09704e-08
4.67643e-07
-4.77875e-08
4.95349e-07
-4.49333e-08
5.21545e-07
-4.22425e-08
5.46351e-07
-3.9999e-08
5.70039e-07
-3.79812e-08
5.92568e-07
-3.61943e-08
6.14431e-07
-3.49064e-08
6.35386e-07
-3.36891e-08
6.56193e-07
-3.314e-08
6.76647e-07
-3.31675e-08
6.96985e-07
-3.22681e-08
7.1918e-07
-3.68103e-08
7.38834e-07
-3.07488e-08
7.68609e-07
-5.15722e-08
7.84773e-07
-2.25902e-08
8.39395e-07
-1.00055e-07
8.45925e-07
5.22237e-09
9.7341e-07
-2.64692e-07
1.02652e-06
-7.71611e-08
4.37521e-07
1.08762e-06
-8.58335e-09
6.75797e-07
-1.03127e-07
8.60583e-08
-8.84776e-08
-3.41973e-08
-8.49313e-08
-5.67946e-09
-8.03843e-08
-6.61173e-09
-7.65474e-08
-6.51178e-09
-7.26916e-08
-5.91627e-09
-7.28413e-08
-1.49631e-10
-8.19033e-08
1.42967e-08
-1.01237e-07
3.07511e-08
-1.23181e-07
3.58223e-08
-1.24035e-07
6.58872e-10
-8.42079e-08
-7.35979e-08
-1.41336e-07
8.48685e-08
-2.41876e-07
1.64163e-07
-3.0286e-07
1.08365e-07
-3.4063e-07
7.45778e-08
-3.59184e-07
4.29939e-08
-3.62943e-07
1.74395e-08
-3.55628e-07
-2.21391e-09
-3.38687e-07
-1.90987e-08
-3.13716e-07
-3.43099e-08
-2.82052e-07
-4.74345e-08
-2.44758e-07
-5.8283e-08
-2.02832e-07
-6.74427e-08
-1.57547e-07
-7.40488e-08
-1.09933e-07
-7.88838e-08
-6.10683e-08
-8.1553e-08
-1.17399e-08
-8.27303e-08
3.72701e-08
-8.23943e-08
8.5472e-08
-8.10302e-08
1.3241e-07
-7.88783e-08
1.77696e-07
-7.59723e-08
2.21087e-07
-7.26513e-08
2.6249e-07
-6.9098e-08
3.01794e-07
-6.53928e-08
3.38974e-07
-6.15701e-08
3.74034e-07
-5.78374e-08
4.07084e-07
-5.42301e-08
4.38252e-07
-5.09733e-08
4.67642e-07
-4.77898e-08
4.95351e-07
-4.49359e-08
5.21548e-07
-4.22452e-08
5.46356e-07
-4.0002e-08
5.70045e-07
-3.79832e-08
5.92575e-07
-3.61964e-08
6.14439e-07
-3.49077e-08
6.35396e-07
-3.36911e-08
6.56203e-07
-3.31408e-08
6.7666e-07
-3.31697e-08
6.96998e-07
-3.2269e-08
7.19194e-07
-3.68141e-08
7.38848e-07
-3.07487e-08
7.68627e-07
-5.15916e-08
7.84791e-07
-2.25892e-08
8.39417e-07
-1.00063e-07
8.45958e-07
5.21219e-09
9.73433e-07
-2.64803e-07
1.02656e-06
-7.72079e-08
4.37551e-07
1.08777e-06
-8.56888e-09
6.75842e-07
-1.03128e-07
8.60757e-08
-8.84791e-08
-3.41983e-08
-8.49332e-08
-5.67725e-09
-8.03847e-08
-6.61365e-09
-7.65455e-08
-6.51572e-09
-7.26868e-08
-5.92236e-09
-7.28365e-08
-1.52435e-10
-8.19031e-08
1.4305e-08
-1.0124e-07
3.07567e-08
-1.23189e-07
3.58279e-08
-1.24045e-07
6.62521e-10
-7.36027e-08
-2.31708e-07
1.63056e-07
-3.31928e-07
2.64395e-07
-3.76741e-07
1.53178e-07
-3.99594e-07
9.74314e-08
-4.04961e-07
4.83547e-08
-3.97708e-07
1.01858e-08
-3.80391e-07
-1.95386e-08
-3.54345e-07
-4.51533e-08
-3.20921e-07
-6.77403e-08
-2.81241e-07
-8.71212e-08
-2.3615e-07
-1.03379e-07
-1.86642e-07
-1.1695e-07
-1.33918e-07
-1.26774e-07
-7.90293e-08
-1.33774e-07
-2.29633e-08
-1.37621e-07
3.3521e-08
-1.39217e-07
8.96757e-08
-1.3855e-07
1.45033e-07
-1.36388e-07
1.99085e-07
-1.32931e-07
2.51495e-07
-1.28382e-07
3.02001e-07
-1.23156e-07
3.50521e-07
-1.17616e-07
3.96899e-07
-1.11769e-07
4.41151e-07
-1.05819e-07
4.83222e-07
-9.99066e-08
5.23275e-07
-9.42797e-08
5.6134e-07
-8.9036e-08
5.97598e-07
-8.4045e-08
6.32038e-07
-7.93735e-08
6.64933e-07
-7.51371e-08
6.96272e-07
-7.13384e-08
7.2644e-07
-6.81494e-08
7.55275e-07
-6.50289e-08
7.83366e-07
-6.29976e-08
8.1037e-07
-6.06937e-08
8.37173e-07
-5.99428e-08
8.63276e-07
-5.92704e-08
8.89657e-07
-5.8649e-08
9.16412e-07
-6.35655e-08
9.43356e-07
-5.76924e-08
9.74129e-07
-8.23458e-08
1.00353e-06
-5.19898e-08
1.04664e-06
-1.43169e-07
1.08863e-06
-3.6762e-08
1.17426e-06
-3.5032e-07
1.23523e-06
-1.38135e-07
7.18996e-07
1.60386e-06
1.44718e-07
1.25008e-06
-8.54856e-08
3.16262e-07
-1.18145e-07
-1.53785e-09
-1.16961e-07
-6.86326e-09
-1.1329e-07
-1.02831e-08
-1.10599e-07
-9.20228e-09
-1.07483e-07
-9.0325e-09
-1.09576e-07
1.94307e-09
-1.22521e-07
2.72415e-08
-1.47772e-07
5.60024e-08
-1.74739e-07
6.27892e-08
-1.81991e-07
7.91161e-09
-1.53513e-07
-1.02076e-07
-2.3169e-07
1.63045e-07
-3.3191e-07
2.64383e-07
-3.76728e-07
1.53184e-07
-3.99584e-07
9.7433e-08
-4.04952e-07
4.83626e-08
-3.97702e-07
1.01893e-08
-3.80388e-07
-1.9528e-08
-3.54346e-07
-4.51406e-08
-3.20928e-07
-6.77282e-08
-2.81251e-07
-8.71108e-08
-2.3616e-07
-1.03374e-07
-1.86651e-07
-1.16952e-07
-1.33927e-07
-1.26772e-07
-7.90405e-08
-1.3377e-07
-2.29764e-08
-1.37617e-07
3.35066e-08
-1.39213e-07
8.96603e-08
-1.38548e-07
1.45017e-07
-1.36387e-07
1.9907e-07
-1.32931e-07
2.5148e-07
-1.28383e-07
3.01987e-07
-1.23158e-07
3.50509e-07
-1.17619e-07
3.96889e-07
-1.11773e-07
4.41141e-07
-1.05823e-07
4.83215e-07
-9.9911e-08
5.23269e-07
-9.42841e-08
5.61337e-07
-8.90409e-08
5.97596e-07
-8.40494e-08
6.32038e-07
-7.93781e-08
6.64935e-07
-7.51416e-08
6.96276e-07
-7.13431e-08
7.26446e-07
-6.8153e-08
7.55282e-07
-6.50326e-08
7.83374e-07
-6.3e-08
8.1038e-07
-6.06972e-08
8.37184e-07
-5.99444e-08
8.63288e-07
-5.92745e-08
8.8967e-07
-5.86503e-08
9.16427e-07
-6.35715e-08
9.43371e-07
-5.76922e-08
9.74147e-07
-8.23678e-08
1.00355e-06
-5.19899e-08
1.04666e-06
-1.4318e-07
1.08866e-06
-3.678e-08
1.17427e-06
-3.50418e-07
1.23525e-06
-1.38187e-07
7.19029e-07
1.604e-06
1.44733e-07
1.25014e-06
-8.54833e-08
3.16292e-07
-1.18147e-07
-1.53489e-09
-1.16963e-07
-6.86091e-09
-1.13289e-07
-1.02873e-08
-1.10596e-07
-9.20908e-09
-1.0748e-07
-9.03813e-09
-1.09574e-07
1.94123e-09
-1.22522e-07
2.72533e-08
-1.47777e-07
5.60114e-08
-1.7475e-07
6.28013e-08
-1.82005e-07
7.91693e-09
-1.0208e-07
-3.00446e-07
2.43464e-07
-3.76203e-07
3.40151e-07
-4.01057e-07
1.78033e-07
-4.1247e-07
1.08845e-07
-4.09611e-07
4.54953e-08
-3.96353e-07
-3.0726e-09
-3.73849e-07
-4.20418e-08
-3.43207e-07
-7.57959e-08
-3.05493e-07
-1.05454e-07
-2.61644e-07
-1.3097e-07
-2.12393e-07
-1.52631e-07
-1.58815e-07
-1.70528e-07
-1.0208e-07
-1.83508e-07
-4.32329e-08
-1.92621e-07
1.67891e-08
-1.97643e-07
7.72255e-08
-1.99653e-07
1.37345e-07
-1.9867e-07
1.9667e-07
-1.95713e-07
2.54666e-07
-1.90927e-07
3.11022e-07
-1.84738e-07
3.65474e-07
-1.77607e-07
4.17933e-07
-1.70075e-07
4.68233e-07
-1.62069e-07
5.16405e-07
-1.53991e-07
5.62385e-07
-1.45886e-07
6.06354e-07
-1.38249e-07
6.48302e-07
-1.30985e-07
6.88438e-07
-1.2418e-07
7.26716e-07
-1.17652e-07
7.63445e-07
-1.11866e-07
7.9858e-07
-1.06474e-07
8.32513e-07
-1.02082e-07
8.65087e-07
-9.76025e-08
8.96844e-07
-9.47545e-08
9.27518e-07
-9.13678e-08
9.5789e-07
-9.03148e-08
9.87481e-07
-8.88614e-08
1.01749e-06
-8.86594e-08
1.04705e-06
-9.31286e-08
1.0785e-06
-8.91387e-08
1.10964e-06
-1.13482e-07
1.14696e-06
-8.93079e-08
1.18246e-06
-1.78674e-07
1.24062e-06
-9.49254e-08
1.29408e-06
-4.03775e-07
1.38113e-06
-2.25182e-07
9.91372e-07
1.99361e-06
3.61721e-07
1.87973e-06
-7.78455e-09
6.85767e-07
-1.20067e-07
1.10745e-07
-1.36607e-07
9.67649e-09
-1.37747e-07
-9.14269e-09
-1.38408e-07
-8.54195e-09
-1.38103e-07
-9.33743e-09
-1.42599e-07
6.43944e-09
-1.57865e-07
4.25079e-08
-1.85279e-07
8.34163e-08
-2.14004e-07
9.15135e-08
-2.29159e-07
2.30673e-08
-2.20023e-07
-1.11212e-07
-3.00425e-07
2.43448e-07
-3.76185e-07
3.40142e-07
-4.01045e-07
1.78044e-07
-4.1246e-07
1.08848e-07
-4.09602e-07
4.55047e-08
-3.96346e-07
-3.0667e-09
-3.73847e-07
-4.20273e-08
-3.43209e-07
-7.57785e-08
-3.05501e-07
-1.05436e-07
-2.61654e-07
-1.30958e-07
-2.12401e-07
-1.52627e-07
-1.58822e-07
-1.70531e-07
-1.0209e-07
-1.83505e-07
-4.3244e-08
-1.92616e-07
1.67761e-08
-1.97637e-07
7.72112e-08
-1.99648e-07
1.3733e-07
-1.98667e-07
1.96654e-07
-1.95711e-07
2.54651e-07
-1.90927e-07
3.11008e-07
-1.8474e-07
3.6546e-07
-1.77611e-07
4.17921e-07
-1.7008e-07
4.68222e-07
-1.62074e-07
5.16395e-07
-1.53996e-07
5.62377e-07
-1.45893e-07
6.06348e-07
-1.38255e-07
6.48299e-07
-1.30992e-07
6.88436e-07
-1.24186e-07
7.26716e-07
-1.17658e-07
7.63447e-07
-1.11873e-07
7.98584e-07
-1.0648e-07
8.32518e-07
-1.02087e-07
8.65094e-07
-9.7608e-08
8.96852e-07
-9.47581e-08
9.27528e-07
-9.13729e-08
9.57901e-07
-9.03172e-08
9.87493e-07
-8.88674e-08
1.0175e-06
-8.8661e-08
1.04707e-06
-9.31366e-08
1.07852e-06
-8.91391e-08
1.10965e-06
-1.13505e-07
1.14697e-06
-8.93096e-08
1.18248e-06
-1.78687e-07
1.24065e-06
-9.49461e-08
1.29409e-06
-4.0386e-07
1.38114e-06
-2.25237e-07
9.91404e-07
1.99373e-06
3.61739e-07
1.8798e-06
-7.77979e-09
6.85811e-07
-1.20067e-07
1.10753e-07
-1.36608e-07
9.67935e-09
-1.37745e-07
-9.14994e-09
-1.38406e-07
-8.54844e-09
-1.38103e-07
-9.34049e-09
-1.426e-07
6.43813e-09
-1.57869e-07
4.25217e-08
-1.85287e-07
8.34294e-08
-2.14017e-07
9.15318e-08
-2.29173e-07
2.3073e-08
-1.11215e-07
-3.41652e-07
3.13815e-07
-3.90702e-07
3.89201e-07
-4.03734e-07
1.91064e-07
-4.08122e-07
1.13233e-07
-4.00428e-07
3.78018e-08
-3.83444e-07
-2.00566e-08
-3.57579e-07
-6.79074e-08
-3.23786e-07
-1.09589e-07
-2.82969e-07
-1.4627e-07
-2.35982e-07
-1.77957e-07
-1.83562e-07
-2.05051e-07
-1.26895e-07
-2.27195e-07
-6.71057e-08
-2.43298e-07
-5.23262e-09
-2.54494e-07
5.78075e-08
-2.60684e-07
1.21236e-07
-2.63082e-07
1.84336e-07
-2.6177e-07
2.46604e-07
-2.5798e-07
3.07495e-07
-2.51819e-07
3.66716e-07
-2.43958e-07
4.24001e-07
-2.34893e-07
4.79247e-07
-2.25322e-07
5.32298e-07
-2.15119e-07
5.83183e-07
-2.04876e-07
6.31858e-07
-1.94561e-07
6.78495e-07
-1.84886e-07
7.23082e-07
-1.75572e-07
7.65818e-07
-1.66916e-07
8.06673e-07
-1.58506e-07
8.4595e-07
-1.51143e-07
8.8362e-07
-1.44144e-07
9.20036e-07
-1.38499e-07
9.55098e-07
-1.32664e-07
9.89264e-07
-1.28921e-07
1.02239e-06
-1.24491e-07
1.0551e-06
-1.23027e-07
1.08705e-06
-1.20812e-07
1.11939e-06
-1.20999e-07
1.15103e-06
-1.24769e-07
1.18508e-06
-1.23191e-07
1.21728e-06
-1.45678e-07
1.25828e-06
-1.30315e-07
1.2915e-06
-2.11894e-07
1.35454e-06
-1.57963e-07
1.38812e-06
-4.37355e-07
1.49226e-06
-3.29323e-07
1.23294e-06
2.25293e-06
6.15887e-07
2.49678e-06
1.4908e-07
1.15257e-06
-7.59189e-08
3.35743e-07
-1.36342e-07
7.00999e-08
-1.49529e-07
4.04442e-09
-1.56028e-07
-2.04303e-09
-1.60368e-07
-4.99767e-09
-1.67459e-07
1.35302e-08
-1.83285e-07
5.83343e-08
-2.09792e-07
1.09923e-07
-2.38784e-07
1.20505e-07
-2.60982e-07
4.52658e-08
-2.71283e-07
-1.00911e-07
-3.41631e-07
3.13796e-07
-3.90684e-07
3.89196e-07
-4.03721e-07
1.9108e-07
-4.08111e-07
1.13239e-07
-4.00419e-07
3.78128e-08
-3.83438e-07
-2.0048e-08
-3.57576e-07
-6.78889e-08
-3.23788e-07
-1.09566e-07
-2.82977e-07
-1.46248e-07
-2.3599e-07
-1.77945e-07
-1.83568e-07
-2.05049e-07
-1.26902e-07
-2.27197e-07
-6.71148e-08
-2.43292e-07
-5.24363e-09
-2.54487e-07
5.77947e-08
-2.60675e-07
1.21222e-07
-2.63076e-07
1.84321e-07
-2.61766e-07
2.46589e-07
-2.57978e-07
3.0748e-07
-2.51819e-07
3.66701e-07
-2.43961e-07
4.23987e-07
-2.34897e-07
4.79235e-07
-2.25327e-07
5.32287e-07
-2.15126e-07
5.83174e-07
-2.04884e-07
6.3185e-07
-1.94569e-07
6.7849e-07
-1.84894e-07
7.23079e-07
-1.75581e-07
7.65817e-07
-1.66925e-07
8.06673e-07
-1.58515e-07
8.45952e-07
-1.51151e-07
8.83624e-07
-1.44152e-07
9.20042e-07
-1.38505e-07
9.55105e-07
-1.32671e-07
9.89273e-07
-1.28925e-07
1.0224e-06
-1.24497e-07
1.05511e-06
-1.23031e-07
1.08706e-06
-1.20819e-07
1.1194e-06
-1.21001e-07
1.15104e-06
-1.24778e-07
1.1851e-06
-1.23193e-07
1.21729e-06
-1.45701e-07
1.2583e-06
-1.30319e-07
1.29152e-06
-2.11908e-07
1.35456e-06
-1.57984e-07
1.38813e-06
-4.37428e-07
1.49227e-06
-3.29379e-07
1.23297e-06
2.25304e-06
6.15908e-07
2.49686e-06
1.49091e-07
1.15263e-06
-7.5916e-08
3.3576e-07
-1.36341e-07
7.01039e-08
-1.49528e-07
4.03777e-09
-1.56029e-07
-2.04735e-09
-1.60371e-07
-4.99873e-09
-1.67462e-07
1.35291e-08
-1.83289e-07
5.83488e-08
-2.09799e-07
1.09939e-07
-2.38795e-07
1.20528e-07
-2.60998e-07
4.52761e-08
-1.00912e-07
-3.61746e-07
3.70163e-07
-3.89626e-07
4.17081e-07
-3.96347e-07
1.97785e-07
-3.95599e-07
1.12485e-07
-3.84297e-07
2.64997e-08
-3.64237e-07
-4.01166e-08
-3.35487e-07
-9.66574e-08
-2.98874e-07
-1.46202e-07
-2.55197e-07
-1.89947e-07
-2.05289e-07
-2.27865e-07
-1.49971e-07
-2.60369e-07
-9.05049e-08
-2.86662e-07
-2.79558e-08
-3.05847e-07
3.66325e-08
-3.19082e-07
1.02355e-07
-3.26406e-07
1.68405e-07
-3.29132e-07
2.34086e-07
-3.27451e-07
2.98859e-07
-3.22752e-07
3.62186e-07
-3.15146e-07
4.23783e-07
-3.05555e-07
4.8339e-07
-2.945e-07
5.40889e-07
-2.8282e-07
5.96141e-07
-2.70372e-07
6.49171e-07
-2.57906e-07
6.99967e-07
-2.45357e-07
7.48677e-07
-2.33596e-07
7.95307e-07
-2.22202e-07
8.40028e-07
-2.11638e-07
8.82851e-07
-2.01329e-07
9.24051e-07
-1.92344e-07
9.63641e-07
-1.83733e-07
1.00191e-06
-1.76771e-07
1.03884e-06
-1.69595e-07
1.0748e-06
-1.64877e-07
1.10976e-06
-1.59452e-07
1.14421e-06
-1.5747e-07
1.17795e-06
-1.54558e-07
1.21196e-06
-1.55009e-07
1.24532e-06
-1.58131e-07
1.281e-06
-1.58866e-07
1.31468e-06
-1.79356e-07
1.35717e-06
-1.72812e-07
1.39095e-06
-2.4567e-07
1.45405e-06
-2.2106e-07
1.4792e-06
-4.62513e-07
1.5827e-06
-4.32818e-07
1.4326e-06
2.40303e-06
8.85445e-07
3.04393e-06
3.5741e-07
1.68061e-06
2.23661e-08
6.70787e-07
-1.08221e-07
2.00687e-07
-1.46054e-07
4.18775e-08
-1.6158e-07
1.34828e-08
-1.71739e-07
5.1616e-09
-1.81661e-07
2.3452e-08
-1.97255e-07
7.39288e-08
-2.2189e-07
1.34558e-07
-2.51273e-07
1.49888e-07
-2.79447e-07
7.34401e-08
-3.05379e-07
-7.49794e-08
-3.61726e-07
3.70142e-07
-3.89609e-07
4.17079e-07
-3.96334e-07
1.97805e-07
-3.95589e-07
1.12493e-07
-3.84288e-07
2.65124e-08
-3.64231e-07
-4.0105e-08
-3.35485e-07
-9.6635e-08
-2.98876e-07
-1.46176e-07
-2.55203e-07
-1.89921e-07
-2.05294e-07
-2.27853e-07
-1.49976e-07
-2.60367e-07
-9.05116e-08
-2.86661e-07
-2.79648e-08
-3.05839e-07
3.66215e-08
-3.19074e-07
1.02342e-07
-3.26396e-07
1.68391e-07
-3.29125e-07
2.34071e-07
-3.27446e-07
2.98844e-07
-3.22751e-07
3.62171e-07
-3.15147e-07
4.23768e-07
-3.05558e-07
4.83377e-07
-2.94505e-07
5.40877e-07
-2.82827e-07
5.9613e-07
-2.7038e-07
6.49163e-07
-2.57916e-07
6.9996e-07
-2.45366e-07
7.48672e-07
-2.33607e-07
7.95304e-07
-2.22212e-07
8.40027e-07
-2.11648e-07
8.82852e-07
-2.0134e-07
9.24054e-07
-1.92353e-07
9.63645e-07
-1.83743e-07
1.00192e-06
-1.7678e-07
1.03885e-06
-1.69604e-07
1.07481e-06
-1.64884e-07
1.10977e-06
-1.5946e-07
1.14422e-06
-1.57474e-07
1.17796e-06
-1.54567e-07
1.21198e-06
-1.55012e-07
1.24534e-06
-1.58141e-07
1.28101e-06
-1.58869e-07
1.31469e-06
-1.79377e-07
1.35719e-06
-1.72818e-07
1.39097e-06
-2.45686e-07
1.45406e-06
-2.21081e-07
1.47921e-06
-4.62576e-07
1.58271e-06
-4.32872e-07
1.43263e-06
2.40312e-06
8.85469e-07
3.04402e-06
3.57426e-07
1.68067e-06
2.23737e-08
6.70812e-07
-1.08219e-07
2.00696e-07
-1.46054e-07
4.1873e-08
-1.61582e-07
1.34805e-08
-1.71743e-07
5.16261e-09
-1.81665e-07
2.34505e-08
-1.97259e-07
7.39436e-08
-2.21897e-07
1.34577e-07
-2.51285e-07
1.49916e-07
-2.79465e-07
7.34555e-08
-7.4978e-08
-3.67151e-07
4.12719e-07
-3.79724e-07
4.29654e-07
-3.82226e-07
2.00287e-07
-3.77013e-07
1.07272e-07
-3.62392e-07
1.18794e-08
-3.39289e-07
-6.32197e-08
-3.07629e-07
-1.28318e-07
-2.68128e-07
-1.85703e-07
-2.21512e-07
-2.36562e-07
-1.68642e-07
-2.80736e-07
-1.10459e-07
-3.18551e-07
-4.82446e-08
-3.48876e-07
1.6985e-08
-3.71076e-07
8.41782e-08
-3.86276e-07
1.52432e-07
-3.9466e-07
2.20919e-07
-3.97618e-07
2.88962e-07
-3.95494e-07
3.55985e-07
-3.89776e-07
4.21475e-07
-3.80636e-07
4.85149e-07
-3.69229e-07
5.4676e-07
-3.56112e-07
6.06174e-07
-3.42234e-07
6.6328e-07
-3.27477e-07
7.18104e-07
-3.1273e-07
7.70664e-07
-2.97917e-07
8.21082e-07
-2.84015e-07
8.69387e-07
-2.70506e-07
9.1572e-07
-2.5797e-07
9.60144e-07
-2.45753e-07
1.0029e-06
-2.35095e-07
1.04404e-06
-2.24877e-07
1.0838e-06
-2.16531e-07
1.12224e-06
-2.08033e-07
1.15963e-06
-2.02268e-07
1.19607e-06
-1.959e-07
1.2319e-06
-1.93296e-07
1.26712e-06
-1.89775e-07
1.30244e-06
-1.90329e-07
1.33729e-06
-1.92985e-07
1.3741e-06
-1.95678e-07
1.40938e-06
-2.14628e-07
1.45237e-06
-2.158e-07
1.48794e-06
-2.81248e-07
1.54867e-06
-2.81789e-07
1.5732e-06
-4.8704e-07
1.66699e-06
-5.26607e-07
1.59697e-06
2.47305e-06
1.15387e-06
3.48704e-06
6.07883e-07
2.22659e-06
1.79139e-07
1.09953e-06
-4.24628e-08
4.22289e-07
-1.24688e-07
1.24103e-07
-1.55443e-07
4.42375e-08
-1.72747e-07
2.24659e-08
-1.8586e-07
3.65645e-08
-2.01231e-07
8.92999e-08
-2.24169e-07
1.57496e-07
-2.54209e-07
1.79928e-07
-2.87393e-07
1.06624e-07
-3.24574e-07
-3.77984e-08
-3.67131e-07
4.12699e-07
-3.79708e-07
4.29656e-07
-3.82214e-07
2.00311e-07
-3.77003e-07
1.07282e-07
-3.62385e-07
1.18941e-08
-3.39284e-07
-6.32052e-08
-3.07627e-07
-1.28292e-07
-2.68129e-07
-1.85674e-07
-2.21516e-07
-2.36535e-07
-1.68645e-07
-2.80724e-07
-1.10463e-07
-3.18549e-07
-4.82513e-08
-3.48873e-07
1.69759e-08
-3.71066e-07
8.4167e-08
-3.86265e-07
1.52419e-07
-3.94649e-07
2.20905e-07
-3.9761e-07
2.88947e-07
-3.95489e-07
3.5597e-07
-3.89774e-07
4.2146e-07
-3.80636e-07
4.85135e-07
-3.69232e-07
5.46747e-07
-3.56118e-07
6.06163e-07
-3.42243e-07
6.6327e-07
-3.27487e-07
7.18095e-07
-3.12741e-07
7.70657e-07
-2.97928e-07
8.21078e-07
-2.84027e-07
8.69384e-07
-2.70519e-07
9.15719e-07
-2.57982e-07
9.60145e-07
-2.45766e-07
1.0029e-06
-2.35106e-07
1.04404e-06
-2.24889e-07
1.0838e-06
-2.16541e-07
1.12224e-06
-2.08044e-07
1.15964e-06
-2.02276e-07
1.19609e-06
-1.9591e-07
1.23191e-06
-1.93302e-07
1.26713e-06
-1.89785e-07
1.30245e-06
-1.90333e-07
1.33731e-06
-1.92996e-07
1.37412e-06
-1.95684e-07
1.40939e-06
-2.14648e-07
1.45238e-06
-2.15808e-07
1.48796e-06
-2.81265e-07
1.54869e-06
-2.8181e-07
1.57321e-06
-4.87095e-07
1.667e-06
-5.26657e-07
1.597e-06
2.47311e-06
1.15389e-06
3.48713e-06
6.07903e-07
2.22666e-06
1.79149e-07
1.09957e-06
-4.246e-08
4.22306e-07
-1.24689e-07
1.24102e-07
-1.55446e-07
4.42376e-08
-1.72752e-07
2.24685e-08
-1.85864e-07
3.65629e-08
-2.01235e-07
8.93143e-08
-2.24175e-07
1.57517e-07
-2.5422e-07
1.79962e-07
-2.87411e-07
1.06646e-07
-3.77948e-08
-3.61838e-07
4.42887e-07
-3.63279e-07
4.31095e-07
-3.61977e-07
1.98985e-07
-3.52412e-07
9.77067e-08
-3.34328e-07
-6.20495e-09
-3.07923e-07
-8.96238e-08
-2.73078e-07
-1.63163e-07
-2.30423e-07
-2.28359e-07
-1.80634e-07
-2.86351e-07
-1.24639e-07
-3.3673e-07
-6.35026e-08
-3.79688e-07
1.52493e-09
-4.13904e-07
6.94362e-08
-4.38988e-07
1.39197e-07
-4.56037e-07
2.09894e-07
-4.65357e-07
2.80689e-07
-4.68413e-07
3.50923e-07
-4.65729e-07
4.19993e-07
-4.58845e-07
4.87417e-07
-4.4806e-07
5.52919e-07
-4.34731e-07
6.1627e-07
-4.19462e-07
6.77318e-07
-4.03283e-07
7.35992e-07
-3.86151e-07
7.92324e-07
-3.69062e-07
8.46361e-07
-3.51953e-07
8.982e-07
-3.35854e-07
9.47885e-07
-3.20192e-07
9.95541e-07
-3.05625e-07
1.04128e-06
-2.91495e-07
1.08531e-06
-2.79119e-07
1.12773e-06
-2.67298e-07
1.1687e-06
-2.57506e-07
1.20838e-06
-2.47713e-07
1.24695e-06
-2.40838e-07
1.28463e-06
-2.33582e-07
1.3216e-06
-2.30264e-07
1.35806e-06
-2.26231e-07
1.39446e-06
-2.26726e-07
1.43062e-06
-2.29145e-07
1.4683e-06
-2.33365e-07
1.50511e-06
-2.51441e-07
1.54817e-06
-2.58851e-07
1.58591e-06
-3.18991e-07
1.64326e-06
-3.39139e-07
1.67132e-06
-5.15099e-07
1.75121e-06
-6.06498e-07
1.73264e-06
2.49162e-06
1.40445e-06
3.81523e-06
8.83456e-07
2.74759e-06
3.92398e-07
1.59059e-06
7.24191e-08
7.42268e-07
-7.81067e-08
2.74629e-07
-1.36299e-07
1.0243e-07
-1.64363e-07
5.05298e-08
-1.81762e-07
5.39634e-08
-1.97314e-07
1.04852e-07
-2.18781e-07
1.78962e-07
-2.49336e-07
2.10483e-07
-2.86635e-07
1.43923e-07
-3.31652e-07
7.21849e-09
-3.61821e-07
4.42868e-07
-3.63266e-07
4.31101e-07
-3.61966e-07
1.99011e-07
-3.52403e-07
9.77195e-08
-3.34321e-07
-6.18804e-09
-3.0792e-07
-8.96066e-08
-2.73077e-07
-1.63135e-07
-2.30424e-07
-2.28327e-07
-1.80635e-07
-2.86323e-07
-1.24641e-07
-3.36718e-07
-6.35064e-08
-3.79683e-07
1.51829e-09
-4.13898e-07
6.94268e-08
-4.38975e-07
1.39186e-07
-4.56024e-07
2.09881e-07
-4.65344e-07
2.80675e-07
-4.68403e-07
3.50908e-07
-4.65723e-07
4.19978e-07
-4.58843e-07
4.87402e-07
-4.48061e-07
5.52906e-07
-4.34736e-07
6.16257e-07
-4.19469e-07
6.77307e-07
-4.03293e-07
7.35982e-07
-3.86163e-07
7.92316e-07
-3.69075e-07
8.46355e-07
-3.51966e-07
8.98195e-07
-3.35868e-07
9.47883e-07
-3.20207e-07
9.9554e-07
-3.0564e-07
1.04128e-06
-2.9151e-07
1.08531e-06
-2.79132e-07
1.12773e-06
-2.67311e-07
1.16871e-06
-2.57517e-07
1.20839e-06
-2.47725e-07
1.24696e-06
-2.40847e-07
1.28465e-06
-2.33593e-07
1.32162e-06
-2.30271e-07
1.35807e-06
-2.26242e-07
1.39447e-06
-2.26732e-07
1.43063e-06
-2.29156e-07
1.46832e-06
-2.33373e-07
1.50513e-06
-2.51459e-07
1.54818e-06
-2.58862e-07
1.58593e-06
-3.19008e-07
1.64328e-06
-3.3916e-07
1.67133e-06
-5.15147e-07
1.75121e-06
-6.06543e-07
1.73266e-06
2.49167e-06
1.40448e-06
3.81531e-06
8.83479e-07
2.74766e-06
3.92412e-07
1.59063e-06
7.24241e-08
7.42293e-07
-7.81069e-08
2.74633e-07
-1.36303e-07
1.02433e-07
-1.64368e-07
5.05338e-08
-1.81767e-07
5.39616e-08
-1.97318e-07
1.04866e-07
-2.18787e-07
1.78986e-07
-2.49346e-07
2.10522e-07
-2.86651e-07
1.43951e-07
7.2249e-09
-3.4789e-07
4.6207e-07
-3.40649e-07
4.23854e-07
-3.35221e-07
1.93556e-07
-3.21082e-07
8.35683e-08
-2.99129e-07
-2.81584e-08
-2.68969e-07
-1.19783e-07
-2.30491e-07
-2.01641e-07
-1.84266e-07
-2.74584e-07
-1.30972e-07
-3.39645e-07
-7.16097e-08
-3.96092e-07
-7.35134e-09
-4.43946e-07
6.0584e-08
-4.81839e-07
1.31243e-07
-5.09646e-07
2.03558e-07
-5.28352e-07
2.76622e-07
-5.3842e-07
3.496e-07
-5.41391e-07
4.21851e-07
-5.3798e-07
4.92752e-07
-5.29746e-07
5.6187e-07
-5.17178e-07
6.28944e-07
-5.01805e-07
6.93757e-07
-4.84274e-07
7.56152e-07
-4.65679e-07
8.16107e-07
-4.46106e-07
8.73667e-07
-4.26622e-07
9.28902e-07
-4.07188e-07
9.81881e-07
-3.88833e-07
1.03266e-06
-3.70975e-07
1.08137e-06
-3.54333e-07
1.12817e-06
-3.38292e-07
1.17321e-06
-3.24165e-07
1.21666e-06
-3.10741e-07
1.25861e-06
-2.99457e-07
1.29929e-06
-2.88395e-07
1.33882e-06
-2.8037e-07
1.37751e-06
-2.72276e-07
1.41542e-06
-2.68169e-07
1.45291e-06
-2.6372e-07
1.4902e-06
-2.64014e-07
1.52748e-06
-2.66431e-07
1.56587e-06
-2.71749e-07
1.60406e-06
-2.89637e-07
1.647e-06
-3.01785e-07
1.68681e-06
-3.58804e-07
1.74064e-06
-3.92965e-07
1.77353e-06
-5.47996e-07
1.83848e-06
-6.7144e-07
1.84637e-06
2.48372e-06
1.62738e-06
4.03422e-06
1.16788e-06
3.20708e-06
6.51373e-07
2.1071e-06
2.45035e-07
1.14861e-06
7.55673e-09
5.12107e-07
-9.85e-08
2.08487e-07
-1.45344e-07
9.73735e-08
-1.70032e-07
7.86519e-08
-1.86883e-07
1.21702e-07
-2.07003e-07
1.99083e-07
-2.37585e-07
2.41066e-07
-2.78095e-07
1.84433e-07
-3.28688e-07
5.78116e-08
-3.47875e-07
4.62054e-07
-3.40638e-07
4.23864e-07
-3.35212e-07
1.93585e-07
-3.21076e-07
8.35836e-08
-2.99125e-07
-2.81394e-08
-2.68967e-07
-1.19764e-07
-2.30491e-07
-2.01611e-07
-1.84266e-07
-2.74552e-07
-1.30972e-07
-3.39617e-07
-7.16109e-08
-3.96079e-07
-7.35546e-09
-4.43939e-07
6.05764e-08
-4.8183e-07
1.31233e-07
-5.09631e-07
2.03547e-07
-5.28338e-07
2.76608e-07
-5.38406e-07
3.49586e-07
-5.41381e-07
4.21836e-07
-5.37973e-07
4.92737e-07
-5.29744e-07
5.61856e-07
-5.1718e-07
6.28931e-07
-5.01811e-07
6.93744e-07
-4.84282e-07
7.56141e-07
-4.6569e-07
8.16098e-07
-4.46119e-07
8.73659e-07
-4.26636e-07
9.28896e-07
-4.07203e-07
9.81877e-07
-3.88849e-07
1.03266e-06
-3.70991e-07
1.08137e-06
-3.54349e-07
1.12817e-06
-3.38308e-07
1.17322e-06
-3.2418e-07
1.21666e-06
-3.10756e-07
1.25861e-06
-2.9947e-07