/*--------------------------------*- C++ -*----------------------------------*\
| =========                 |                                                 |
| \\      /  F ield         | OpenFOAM: The Open Source CFD Toolbox           |
|  \\    /   O peration     | Version:  5.x                                   |
|   \\  /    A nd           | Web:      www.OpenFOAM.org                      |
|    \\/     M anipulation  |                                                 |
\*---------------------------------------------------------------------------*/
FoamFile
{
    version     2.0;
    format      ascii;
    class       volScalarField;
    location    "300/surface";
    object      pPrime2Mean;
}
// * * * * * * * * * * * * * * * * * * * * * * * * * * * * * * * * * * * * * //

dimensions      [0 4 -4 0 0 0 0];

internalField   nonuniform List<scalar> 
7200
(
1.17429e-06
1.32152e-06
7.33222e-07
2.18117e-07
2.9048e-08
4.64304e-09
2.42384e-08
7.90649e-08
1.73468e-07
2.99012e-07
4.48764e-07
6.1376e-07
7.8807e-07
9.63135e-07
1.13708e-06
1.30611e-06
1.45873e-06
1.6031e-06
1.74487e-06
1.89117e-06
2.03984e-06
2.19079e-06
2.33316e-06
2.46434e-06
2.57972e-06
2.68606e-06
2.79177e-06
2.89438e-06
2.99551e-06
3.09308e-06
3.18996e-06
3.28026e-06
3.3751e-06
3.46854e-06
3.58682e-06
3.72096e-06
3.8713e-06
4.0481e-06
4.25744e-06
4.50476e-06
4.80334e-06
5.17163e-06
5.60799e-06
6.05585e-06
6.30191e-06
5.8501e-06
5.24843e-07
4.08724e-07
4.82957e-07
2.59953e-07
1.37382e-07
1.13176e-07
1.51605e-07
2.29649e-07
3.24411e-07
4.30694e-07
5.12446e-07
5.24719e-07
4.11166e-07
9.01158e-08
1.37353e-06
1.67552e-06
1.18696e-06
6.98343e-07
3.4018e-07
1.26609e-07
3.59439e-08
3.89921e-08
1.13721e-07
2.38707e-07
3.98638e-07
5.76363e-07
7.61514e-07
9.46037e-07
1.12905e-06
1.30772e-06
1.48049e-06
1.65729e-06
1.8354e-06
2.01578e-06
2.18578e-06
2.34491e-06
2.48442e-06
2.60848e-06
2.72418e-06
2.82975e-06
2.93505e-06
3.03843e-06
3.1487e-06
3.2647e-06
3.39315e-06
3.52406e-06
3.66025e-06
3.7921e-06
3.93883e-06
4.10314e-06
4.288e-06
4.50293e-06
4.75368e-06
5.05323e-06
5.41177e-06
5.84123e-06
6.34032e-06
6.85763e-06
7.14737e-06
6.67101e-06
7.74764e-07
2.00041e-07
1.96923e-07
1.23262e-07
1.28065e-07
1.82916e-07
2.6309e-07
3.54465e-07
4.41801e-07
5.26418e-07
5.81032e-07
5.72288e-07
4.51378e-07
1.14147e-07
1.01286e-06
1.14594e-06
6.2251e-07
1.67123e-07
1.04288e-08
5.51026e-09
3.57904e-08
1.02687e-07
2.08583e-07
3.44411e-07
5.03471e-07
6.76682e-07
8.58564e-07
1.04041e-06
1.2205e-06
1.39492e-06
1.55306e-06
1.70197e-06
1.84809e-06
1.99814e-06
2.15064e-06
2.30497e-06
2.45097e-06
2.58534e-06
2.70387e-06
2.8129e-06
2.92082e-06
3.02562e-06
3.12854e-06
3.22794e-06
3.32612e-06
3.41814e-06
3.51377e-06
3.60896e-06
3.72758e-06
3.86265e-06
4.01316e-06
4.18975e-06
4.39772e-06
4.64281e-06
4.9364e-06
5.2962e-06
5.71707e-06
6.13879e-06
6.34711e-06
5.84641e-06
6.43435e-07
3.35944e-07
4.6122e-07
2.9178e-07
1.70305e-07
1.18163e-07
1.16057e-07
1.46055e-07
1.90731e-07
2.40475e-07
2.69343e-07
2.44849e-07
1.42531e-07
5.68095e-08
1.19427e-06
1.46859e-06
1.03257e-06
5.93497e-07
2.74284e-07
9.1099e-08
2.44633e-08
4.71398e-08
1.38176e-07
2.76744e-07
4.4837e-07
6.36018e-07
8.29862e-07
1.02196e-06
1.2118e-06
1.3965e-06
1.57511e-06
1.75679e-06
1.93982e-06
2.12444e-06
2.29894e-06
2.46189e-06
2.60529e-06
2.73274e-06
2.85133e-06
2.95973e-06
3.06703e-06
3.17259e-06
3.28434e-06
3.40215e-06
3.53188e-06
3.66479e-06
3.80246e-06
3.93664e-06
4.08471e-06
4.25024e-06
4.43554e-06
4.65044e-06
4.9001e-06
5.1973e-06
5.55084e-06
5.97161e-06
6.45468e-06
6.94415e-06
7.19479e-06
6.67091e-06
9.4031e-07
1.66781e-07
1.89982e-07
1.3203e-07
1.15345e-07
1.33836e-07
1.72541e-07
2.19993e-07
2.64336e-07
3.01787e-07
3.12896e-07
2.73687e-07
1.62351e-07
4.55226e-08
9.39985e-07
1.02922e-06
5.52118e-07
1.38821e-07
2.27151e-09
9.38653e-09
4.4647e-08
1.16986e-07
2.27486e-07
3.66877e-07
5.28644e-07
7.03811e-07
8.87199e-07
1.07025e-06
1.25127e-06
1.42601e-06
1.58566e-06
1.7354e-06
1.88251e-06
2.03261e-06
2.1853e-06
2.33911e-06
2.48537e-06
2.61981e-06
2.73902e-06
2.84845e-06
2.95629e-06
3.06098e-06
3.16338e-06
3.26239e-06
3.35955e-06
3.45132e-06
3.54551e-06
3.64074e-06
3.75719e-06
3.89035e-06
4.03791e-06
4.21064e-06
4.41294e-06
4.65095e-06
4.93381e-06
5.27851e-06
5.67644e-06
6.06675e-06
6.2414e-06
5.7561e-06
9.10956e-07
1.90611e-07
3.04209e-07
2.25782e-07
1.53978e-07
1.1838e-07
1.13763e-07
1.29282e-07
1.52178e-07
1.72659e-07
1.73341e-07
1.35942e-07
7.13836e-08
2.31948e-07
1.11031e-06
1.32602e-06
9.26081e-07
5.25417e-07
2.35391e-07
7.27587e-08
2.04418e-08
5.31528e-08
1.51479e-07
2.95275e-07
4.70697e-07
6.61132e-07
8.57076e-07
1.05086e-06
1.24214e-06
1.42772e-06
1.60765e-06
1.78953e-06
1.97301e-06
2.15715e-06
2.33202e-06
2.49489e-06
2.6391e-06
2.76734e-06
2.88648e-06
2.99557e-06
3.10261e-06
3.20809e-06
3.31881e-06
3.43586e-06
3.56389e-06
3.69596e-06
3.83217e-06
3.96628e-06
4.11303e-06
4.27661e-06
4.45873e-06
4.66939e-06
4.91316e-06
5.20248e-06
5.5445e-06
5.9493e-06
6.40841e-06
6.86464e-06
7.08254e-06
6.5819e-06
1.29144e-06
1.46331e-07
1.37877e-07
1.21028e-07
1.18864e-07
1.32823e-07
1.57207e-07
1.84292e-07
2.05359e-07
2.15218e-07
2.0142e-07
1.51439e-07
7.45052e-08
1.90854e-07
9.40368e-07
9.54385e-07
5.08241e-07
1.25512e-07
1.91894e-10
1.23972e-08
4.90544e-08
1.22928e-07
2.33634e-07
3.72293e-07
5.3247e-07
7.05533e-07
8.86369e-07
1.06695e-06
1.24531e-06
1.41694e-06
1.57536e-06
1.72363e-06
1.86954e-06
2.01736e-06
2.16779e-06
2.3185e-06
2.46263e-06
2.59506e-06
2.71326e-06
2.82169e-06
2.92796e-06
3.03103e-06
3.13139e-06
3.22852e-06
3.32313e-06
3.41335e-06
3.50473e-06
3.59899e-06
3.71188e-06
3.84142e-06
3.98418e-06
4.15094e-06
4.34504e-06
4.57329e-06
4.84252e-06
5.16908e-06
5.5416e-06
5.90136e-06
6.0563e-06
5.64223e-06
1.33968e-06
1.50655e-07
1.59623e-07
1.43982e-07
1.21881e-07
1.13153e-07
1.18918e-07
1.33263e-07
1.46991e-07
1.51537e-07
1.37292e-07
1.01886e-07
9.39842e-08
4.90082e-07
1.10562e-06
1.22976e-06
8.51279e-07
4.79957e-07
2.1203e-07
6.33756e-08
1.90209e-08
5.58468e-08
1.55616e-07
2.99213e-07
4.73219e-07
6.61738e-07
8.5534e-07
1.04693e-06
1.23597e-06
1.41902e-06
1.59729e-06
1.77629e-06
1.95713e-06
2.1376e-06
2.30988e-06
2.47002e-06
2.61289e-06
2.74028e-06
2.85849e-06
2.96695e-06
3.0723e-06
3.17626e-06
3.28432e-06
3.39889e-06
3.52319e-06
3.65247e-06
3.78528e-06
3.91783e-06
4.06173e-06
4.2215e-06
4.39824e-06
4.60213e-06
4.83712e-06
5.11542e-06
5.44244e-06
5.8278e-06
6.26031e-06
6.68434e-06
6.88483e-06
6.47142e-06
1.82999e-06
2.84925e-07
1.47157e-07
1.38266e-07
1.44943e-07
1.58186e-07
1.74957e-07
1.89211e-07
1.94532e-07
1.85557e-07
1.56466e-07
1.0804e-07
8.34118e-08
4.24743e-07
9.78209e-07
8.92985e-07
4.69452e-07
1.16887e-07
1.77041e-13
1.52577e-08
5.33323e-08
1.2857e-07
2.39229e-07
3.76914e-07
5.35111e-07
7.05742e-07
8.83486e-07
1.06117e-06
1.23624e-06
1.40431e-06
1.56099e-06
1.70764e-06
1.85213e-06
1.9975e-06
2.14532e-06
2.29258e-06
2.43413e-06
2.56425e-06
2.68124e-06
2.7886e-06
2.89324e-06
2.99456e-06
3.09275e-06
3.18778e-06
3.27975e-06
3.3682e-06
3.45686e-06
3.55001e-06
3.65952e-06
3.78535e-06
3.92329e-06
4.08399e-06
4.26987e-06
4.4884e-06
4.74443e-06
5.05372e-06
5.40324e-06
5.73845e-06
5.89045e-06
5.5809e-06
1.86316e-06
3.03358e-07
1.35421e-07
1.224e-07
1.18688e-07
1.21173e-07
1.29481e-07
1.3917e-07
1.43572e-07
1.36042e-07
1.16107e-07
9.97087e-08
1.76388e-07
8.07878e-07
1.141e-06
1.14801e-06
7.81769e-07
4.36427e-07
1.89689e-07
5.47055e-08
1.81059e-08
5.88146e-08
1.59669e-07
3.02701e-07
4.74778e-07
6.60937e-07
8.51594e-07
1.04055e-06
1.22679e-06
1.4069e-06
1.58299e-06
1.75879e-06
1.93641e-06
2.11269e-06
2.28176e-06
2.43873e-06
2.57993e-06
2.70636e-06
2.82363e-06
2.93141e-06
3.0351e-06
3.13739e-06
3.24271e-06
3.35448e-06
3.47484e-06
3.60092e-06
3.73017e-06
3.86093e-06
4.00209e-06
4.15799e-06
4.32923e-06
4.52616e-06
4.75227e-06
5.01949e-06
5.3318e-06
5.6985e-06
6.10694e-06
6.50531e-06
6.70678e-06
6.41879e-06
2.46663e-06
6.12891e-07
2.6866e-07
2.11658e-07
1.98376e-07
1.9662e-07
1.9846e-07
1.96821e-07
1.86389e-07
1.62469e-07
1.2701e-07
9.65817e-08
1.51837e-07
7.2081e-07
1.04044e-06
8.41572e-07
4.33885e-07
1.11295e-07
1.03527e-10
1.7415e-08
5.78255e-08
1.34739e-07
2.45476e-07
3.82361e-07
5.38581e-07
7.06837e-07
8.81409e-07
1.05608e-06
1.22765e-06
1.39206e-06
1.54671e-06
1.69178e-06
1.83469e-06
1.97764e-06
2.12261e-06
2.26635e-06
2.40503e-06
2.53276e-06
2.64836e-06
2.75467e-06
2.8577e-06
2.95722e-06
3.05326e-06
3.1461e-06
3.23547e-06
3.32198e-06
3.40814e-06
3.49994e-06
3.60629e-06
3.72836e-06
3.86163e-06
4.01627e-06
4.1942e-06
4.40315e-06
4.64676e-06
4.93986e-06
5.26921e-06
5.58599e-06
5.74944e-06
5.56518e-06
2.44926e-06
6.30258e-07
2.31138e-07
1.64342e-07
1.46975e-07
1.43319e-07
1.44816e-07
1.45415e-07
1.39796e-07
1.24057e-07
1.07799e-07
1.26854e-07
3.11325e-07
1.15054e-06
1.20187e-06
1.07713e-06
7.15624e-07
3.93545e-07
1.67421e-07
4.62333e-08
1.76548e-08
6.25033e-08
1.64559e-07
3.07167e-07
4.77277e-07
6.61078e-07
8.48677e-07
1.03487e-06
1.21813e-06
1.39521e-06
1.56885e-06
1.74139e-06
1.91542e-06
2.08735e-06
2.25276e-06
2.40642e-06
2.54572e-06
2.67115e-06
2.78753e-06
2.89463e-06
2.99679e-06
3.09733e-06
3.19998e-06
3.30879e-06
3.42519e-06
3.54779e-06
3.67348e-06
3.80219e-06
3.94068e-06
4.09268e-06
4.2585e-06
4.44842e-06
4.66579e-06
4.92205e-06
5.22031e-06
5.56941e-06
5.95668e-06
6.33606e-06
6.55411e-06
6.41486e-06
3.16095e-06
1.0997e-06
4.95049e-07
3.39436e-07
2.77816e-07
2.45963e-07
2.24859e-07
2.03936e-07
1.77764e-07
1.43138e-07
1.10629e-07
1.14333e-07
2.72722e-07
1.04501e-06
1.11734e-06
7.99374e-07
4.01317e-07
1.06961e-07
1.13127e-09
1.85228e-08
6.24307e-08
1.41281e-07
2.52196e-07
3.88405e-07
5.42662e-07
7.08567e-07
8.79953e-07
1.05149e-06
1.21946e-06
1.38024e-06
1.53265e-06
1.67613e-06
1.81735e-06
1.95791e-06
2.09986e-06
2.24007e-06
2.37565e-06
2.50091e-06
2.61494e-06
2.72014e-06
2.82159e-06
2.91926e-06
3.01317e-06
3.10371e-06
3.19061e-06
3.27498e-06
3.35888e-06
3.44895e-06
3.55227e-06
3.6705e-06
3.79922e-06
3.94779e-06
4.11807e-06
4.31762e-06
4.54962e-06
4.82764e-06
5.13969e-06
5.44389e-06
5.63042e-06
5.5825e-06
3.0673e-06
1.09593e-06
4.34845e-07
2.66641e-07
2.05879e-07
1.79129e-07
1.64501e-07
1.51794e-07
1.35836e-07
1.16136e-07
1.12644e-07
1.81247e-07
4.86824e-07
1.48302e-06
1.27744e-06
1.01645e-06
6.53653e-07
3.52176e-07
1.45751e-07
3.8219e-08
1.77382e-08
6.68684e-08
1.70162e-07
3.12421e-07
4.80536e-07
6.61949e-07
8.46444e-07
1.02975e-06
1.20989e-06
1.38391e-06
1.55489e-06
1.72416e-06
1.89437e-06
2.06191e-06
2.22334e-06
2.37359e-06
2.51079e-06
2.63512e-06
2.75059e-06
2.85694e-06
2.95767e-06
3.05639e-06
3.1565e-06
3.26219e-06
3.37472e-06
3.49358e-06
3.61573e-06
3.74202e-06
3.8777e-06
4.0257e-06
4.18615e-06
4.36903e-06
4.57786e-06
4.8233e-06
5.10821e-06
5.4408e-06
5.80985e-06
6.17649e-06
6.42348e-06
6.44436e-06
3.87631e-06
1.70503e-06
8.12529e-07
5.17314e-07
3.81704e-07
3.05328e-07
2.53607e-07
2.10396e-07
1.68948e-07
1.28239e-07
1.0774e-07
1.59483e-07
4.34766e-07
1.36302e-06
1.19959e-06
7.65258e-07
3.72007e-07
1.02671e-07
3.64037e-09
1.9065e-08
6.70231e-08
1.48097e-07
2.59329e-07
3.94927e-07
5.47272e-07
7.10816e-07
8.7902e-07
1.04732e-06
1.21159e-06
1.36882e-06
1.51881e-06
1.66067e-06
1.80012e-06
1.93834e-06
2.07719e-06
2.21392e-06
2.34626e-06
2.46898e-06
2.58125e-06
2.68525e-06
2.78512e-06
2.8809e-06
2.9727e-06
3.06091e-06
3.14542e-06
3.22753e-06
3.3093e-06
3.39727e-06
3.49757e-06
3.61179e-06
3.73609e-06
3.87855e-06
4.04152e-06
4.23184e-06
4.45306e-06
4.71711e-06
5.01478e-06
5.31165e-06
5.53016e-06
5.62223e-06
3.68696e-06
1.65867e-06
7.29195e-07
4.23383e-07
2.93239e-07
2.2757e-07
1.8796e-07
1.58133e-07
1.31958e-07
1.12666e-07
1.30207e-07
2.58987e-07
6.87434e-07
1.77925e-06
1.3576e-06
9.6483e-07
5.96431e-07
3.13025e-07
1.25152e-07
3.09131e-08
1.84752e-08
7.19174e-08
1.76473e-07
3.18378e-07
4.84503e-07
6.63467e-07
8.44824e-07
1.02511e-06
1.202e-06
1.37293e-06
1.54106e-06
1.70706e-06
1.87335e-06
2.03653e-06
2.19384e-06
2.34064e-06
2.47557e-06
2.59868e-06
2.71317e-06
2.81866e-06
2.91803e-06
3.0149e-06
3.11256e-06
3.21506e-06
3.32379e-06
3.43874e-06
3.55735e-06
3.68078e-06
3.81341e-06
3.95718e-06
4.1123e-06
4.28812e-06
4.48864e-06
4.7234e-06
4.99573e-06
5.31289e-06
5.66665e-06
6.02611e-06
6.3112e-06
6.49451e-06
4.5779e-06
2.38404e-06
1.203e-06
7.38797e-07
5.07486e-07
3.73467e-07
2.84148e-07
2.16112e-07
1.60325e-07
1.18277e-07
1.18054e-07
2.28406e-07
6.23138e-07
1.64896e-06
1.27889e-06
7.37846e-07
3.45946e-07
9.79821e-08
5.92879e-09
1.96633e-08
7.16358e-08
1.55145e-07
2.66872e-07
4.01899e-07
5.52412e-07
7.13592e-07
8.78644e-07
1.04362e-06
1.20419e-06
1.35797e-06
1.5054e-06
1.64556e-06
1.78314e-06
1.91903e-06
2.05481e-06
2.18813e-06
2.31721e-06
2.43734e-06
2.54768e-06
2.65036e-06
2.74863e-06
2.84249e-06
2.9322e-06
3.01806e-06
3.10026e-06
3.18005e-06
3.25975e-06
3.3453e-06
3.4425e-06
3.55251e-06
3.67245e-06
3.80878e-06
3.96476e-06
4.14605e-06
4.35728e-06
4.60847e-06
4.89445e-06
5.18854e-06
5.44501e-06
5.67496e-06
4.2807e-06
2.27516e-06
1.09288e-06
6.26148e-07
4.0561e-07
2.87063e-07
2.14508e-07
1.64254e-07
1.28435e-07
1.13809e-07
1.59348e-07
3.54572e-07
8.96382e-07
2.02273e-06
1.4335e-06
9.20827e-07
5.44259e-07
2.76611e-07
1.06016e-07
2.45423e-08
2.00029e-08
7.76929e-08
1.83537e-07
3.25046e-07
4.89207e-07
6.65666e-07
8.43876e-07
1.02101e-06
1.19458e-06
1.3624e-06
1.52752e-06
1.69024e-06
1.85257e-06
2.01147e-06
2.16463e-06
2.30801e-06
2.44058e-06
2.56231e-06
2.67571e-06
2.78024e-06
2.87828e-06
2.97328e-06
3.06858e-06
3.16788e-06
3.27292e-06
3.38386e-06
3.49886e-06
3.61904e-06
3.74827e-06
3.88755e-06
4.03731e-06
4.20608e-06
4.39851e-06
4.62278e-06
4.88326e-06
5.1861e-06
5.52723e-06
5.88424e-06
6.21317e-06
6.55418e-06
5.2355e-06
3.09222e-06
1.64515e-06
9.95228e-07
6.51531e-07
4.48734e-07
3.15858e-07
2.21027e-07
1.52274e-07
1.13509e-07
1.40562e-07
3.15861e-07
8.21582e-07
1.88628e-06
1.34807e-06
7.15492e-07
3.22915e-07
9.28304e-08
7.5714e-09
2.06875e-08
7.63842e-08
1.62432e-07
2.74833e-07
4.09327e-07
5.58106e-07
7.16915e-07
8.78884e-07
1.04048e-06
1.19738e-06
1.34782e-06
1.49261e-06
1.63096e-06
1.76657e-06
1.90012e-06
2.03286e-06
2.16287e-06
2.28871e-06
2.40622e-06
2.5145e-06
2.61572e-06
2.71235e-06
2.80428e-06
2.89192e-06
2.97546e-06
3.05542e-06
3.13286e-06
3.21049e-06
3.29337e-06
3.38732e-06
3.49296e-06
3.60851e-06
3.73874e-06
3.88793e-06
4.06048e-06
4.26235e-06
4.50185e-06
4.77842e-06
5.07354e-06
5.37118e-06
5.73219e-06
4.82568e-06
2.90484e-06
1.5025e-06
8.64684e-07
5.38501e-07
3.55628e-07
2.43393e-07
1.70064e-07
1.25505e-07
1.19436e-07
1.98202e-07
4.61307e-07
1.09773e-06
2.20558e-06
1.49772e-06
8.82698e-07
4.97142e-07
2.43274e-07
8.86405e-08
1.93032e-08
2.24479e-08
8.42603e-08
1.91406e-07
3.32463e-07
4.94699e-07
6.68592e-07
8.43678e-07
1.01757e-06
1.18775e-06
1.35245e-06
1.51444e-06
1.67387e-06
1.83225e-06
1.98696e-06
2.13603e-06
2.27603e-06
2.40617e-06
2.52636e-06
2.63856e-06
2.742e-06
2.83873e-06
2.93187e-06
3.02487e-06
3.12103e-06
3.22246e-06
3.32937e-06
3.44069e-06
3.55726e-06
3.68272e-06
3.81722e-06
3.96154e-06
4.12332e-06
4.30783e-06
4.52188e-06
4.7711e-06
5.06076e-06
5.39153e-06
5.7499e-06
6.1253e-06
6.61375e-06
5.82528e-06
3.78936e-06
2.11606e-06
1.27645e-06
8.09411e-07
5.29276e-07
3.48135e-07
2.25167e-07
1.45129e-07
1.13882e-07
1.73519e-07
4.15391e-07
1.01453e-06
2.06674e-06
1.40161e-06
6.96456e-07
3.02544e-07
8.73438e-08
8.69105e-09
2.23405e-08
8.14031e-08
1.7e-07
2.83205e-07
4.17214e-07
5.64358e-07
7.20795e-07
8.79762e-07
1.03798e-06
1.19129e-06
1.33851e-06
1.4806e-06
1.61704e-06
1.75058e-06
1.88178e-06
2.01153e-06
2.13833e-06
2.261e-06
2.37585e-06
2.48197e-06
2.58159e-06
2.67654e-06
2.76651e-06
2.85209e-06
2.93335e-06
3.01111e-06
3.08623e-06
3.16174e-06
3.24181e-06
3.33233e-06
3.43349e-06
3.54453e-06
3.66876e-06
3.81129e-06
3.97544e-06
4.16845e-06
4.39741e-06
4.66643e-06
4.96548e-06
5.30491e-06
5.78623e-06
5.30462e-06
3.51252e-06
1.93429e-06
1.12742e-06
6.86585e-07
4.3096e-07
2.73795e-07
1.75485e-07
1.23298e-07
1.29061e-07
2.44214e-07
5.71825e-07
1.27786e-06
2.32618e-06
1.54467e-06
8.4862e-07
4.54808e-07
2.13167e-07
7.32264e-08
1.53538e-08
2.5909e-08
9.16906e-08
2.0011e-07
3.40661e-07
5.01004e-07
6.72271e-07
8.44266e-07
1.01485e-06
1.18162e-06
1.3432e-06
1.50199e-06
1.65812e-06
1.8126e-06
1.96326e-06
2.10833e-06
2.245e-06
2.37266e-06
2.49117e-06
2.60203e-06
2.70427e-06
2.79965e-06
2.89097e-06
2.98174e-06
3.07484e-06
3.17274e-06
3.27565e-06
3.38319e-06
3.49587e-06
3.61722e-06
3.7467e-06
3.88545e-06
4.04033e-06
4.21703e-06
4.42118e-06
4.65965e-06
4.93726e-06
5.25946e-06
5.62199e-06
6.04357e-06
6.6648e-06
6.33046e-06
4.44183e-06
2.59276e-06
1.57122e-06
9.76055e-07
6.13017e-07
3.80366e-07
2.28598e-07
1.39102e-07
1.18967e-07
2.14462e-07
5.19828e-07
1.18858e-06
2.1883e-06
1.43561e-06
6.78913e-07
2.84303e-07
8.17023e-08
9.54969e-09
2.47201e-08
8.68243e-08
1.77901e-07
2.91991e-07
4.25543e-07
5.71153e-07
7.25203e-07
8.81256e-07
1.03611e-06
1.18596e-06
1.33008e-06
1.46949e-06
1.6039e-06
1.73529e-06
1.86412e-06
1.99095e-06
2.11464e-06
2.23421e-06
2.3464e-06
2.45026e-06
2.54814e-06
2.64135e-06
2.72935e-06
2.81288e-06
2.89192e-06
2.96752e-06
3.04037e-06
3.1137e-06
3.19086e-06
3.27778e-06
3.37436e-06
3.48075e-06
3.59908e-06
3.73503e-06
3.89115e-06
4.07573e-06
4.29522e-06
4.55819e-06
4.86306e-06
5.24283e-06
5.83063e-06
5.70614e-06
4.07032e-06
2.36593e-06
1.40228e-06
8.44062e-07
5.10508e-07
3.04944e-07
1.80467e-07
1.21823e-07
1.41838e-07
2.94234e-07
6.78705e-07
1.42655e-06
2.38748e-06
1.57061e-06
8.16684e-07
4.16724e-07
1.8627e-07
5.9872e-08
1.28072e-08
3.04554e-08
1.0004e-07
2.09673e-07
3.49645e-07
5.08123e-07
6.76687e-07
8.45626e-07
1.01285e-06
1.17624e-06
1.33471e-06
1.49028e-06
1.64311e-06
1.79378e-06
1.94053e-06
2.08174e-06
2.21516e-06
2.34029e-06
2.45698e-06
2.56635e-06
2.66727e-06
2.76127e-06
2.8508e-06
2.93938e-06
3.02954e-06
3.124e-06
3.22297e-06
3.32666e-06
3.43523e-06
3.55214e-06
3.67638e-06
3.80941e-06
3.95749e-06
4.12649e-06
4.3211e-06
4.54925e-06
4.81584e-06
5.13092e-06
5.49925e-06
5.96449e-06
6.70062e-06
6.74111e-06
5.02386e-06
3.05402e-06
1.86804e-06
1.14604e-06
6.97761e-07
4.11982e-07
2.31408e-07
1.34272e-07
1.27954e-07
2.60316e-07
6.21909e-07
1.33356e-06
2.25337e-06
1.44792e-06
6.61147e-07
2.67593e-07
7.60678e-08
1.03968e-08
2.78653e-08
9.27488e-08
1.86168e-07
3.01178e-07
4.3426e-07
5.7843e-07
7.30076e-07
8.83285e-07
1.03481e-06
1.18136e-06
1.32251e-06
1.45925e-06
1.59152e-06
1.7207e-06
1.84713e-06
1.97111e-06
2.0918e-06
2.20837e-06
2.3179e-06
2.41944e-06
2.51544e-06
2.60684e-06
2.69287e-06
2.77434e-06
2.85121e-06
2.92468e-06
2.99532e-06
3.0664e-06
3.14066e-06
3.22381e-06
3.31576e-06
3.41737e-06
3.5299e-06
3.65935e-06
3.80779e-06
3.98431e-06
4.1953e-06
4.45333e-06
4.76497e-06
5.18177e-06
5.85989e-06
6.02436e-06
4.55789e-06
2.7778e-06
1.67742e-06
1.00499e-06
5.91762e-07
3.361e-07
1.85049e-07
1.20948e-07
1.56583e-07
3.44712e-07
7.75057e-07
1.53705e-06
2.3949e-06
1.57363e-06
7.85139e-07
3.82192e-07
1.62412e-07
4.85914e-08
1.17227e-08
3.6124e-08
1.09327e-07
2.20098e-07
3.59378e-07
5.16007e-07
6.81784e-07
8.47673e-07
1.01151e-06
1.17158e-06
1.32695e-06
1.47931e-06
1.62885e-06
1.77582e-06
1.91878e-06
2.05629e-06
2.18656e-06
2.30914e-06
2.42389e-06
2.53161e-06
2.6311e-06
2.72366e-06
2.81145e-06
2.89788e-06
2.98522e-06
3.07633e-06
3.17146e-06
3.27121e-06
3.37555e-06
3.48775e-06
3.60659e-06
3.73377e-06
3.87514e-06
4.03653e-06
4.22194e-06
4.44018e-06
4.69668e-06
5.00565e-06
5.38046e-06
5.88483e-06
6.71587e-06
7.05345e-06
5.51766e-06
3.48156e-06
2.15586e-06
1.31402e-06
7.81406e-07
4.425e-07
2.33759e-07
1.30554e-07
1.3968e-07
3.07581e-07
7.14837e-07
1.44269e-06
2.26682e-06
1.43781e-06
6.4152e-07
2.51776e-07
7.05186e-08
1.14137e-08
3.17693e-08
9.92471e-08
1.94819e-07
3.10758e-07
4.4334e-07
5.86119e-07
7.35355e-07
8.85769e-07
1.03405e-06
1.17747e-06
1.31577e-06
1.44989e-06
1.57992e-06
1.70682e-06
1.83079e-06
1.95199e-06
2.06974e-06
2.1834e-06
2.29027e-06
2.38944e-06
2.48344e-06
2.57295e-06
2.65701e-06
2.73642e-06
2.81119e-06
2.88253e-06
2.95104e-06
3.01981e-06
3.09121e-06
3.17051e-06
3.25784e-06
3.35453e-06
3.4614e-06
3.58437e-06
3.72552e-06
3.89428e-06
4.09763e-06
4.3514e-06
4.66999e-06
5.11904e-06
5.86991e-06
6.25806e-06
4.96223e-06
3.15365e-06
1.94198e-06
1.16371e-06
6.72392e-07
3.66649e-07
1.89298e-07
1.20449e-07
1.71803e-07
3.91991e-07
8.55065e-07
1.60625e-06
2.35523e-06
1.55332e-06
7.52322e-07
3.50435e-07
1.41304e-07
3.93274e-08
1.21003e-08
4.29182e-08
1.19533e-07
2.31372e-07
3.69842e-07
5.24595e-07
6.87503e-07
8.50319e-07
1.01078e-06
1.16762e-06
1.31991e-06
1.46908e-06
1.61533e-06
1.7587e-06
1.89799e-06
2.03194e-06
2.15911e-06
2.27913e-06
2.39183e-06
2.49776e-06
2.59573e-06
2.68678e-06
2.77287e-06
2.8572e-06
2.94187e-06
3.0297e-06
3.1211e-06
3.21686e-06
3.31692e-06
3.42422e-06
3.53758e-06
3.65879e-06
3.79354e-06
3.9474e-06
4.12398e-06
4.33265e-06
4.57987e-06
4.88332e-06
5.26442e-06
5.80192e-06
6.70673e-06
7.26861e-06
5.91293e-06
3.86048e-06
2.42471e-06
1.47497e-06
8.62042e-07
4.71529e-07
2.35805e-07
1.27739e-07
1.52661e-07
3.52631e-07
7.9285e-07
1.51265e-06
2.23492e-06
1.40583e-06
6.18665e-07
2.36238e-07
6.50688e-08
1.27117e-08
3.63907e-08
1.06343e-07
2.03863e-07
3.20704e-07
4.52757e-07
5.94154e-07
7.40985e-07
8.88638e-07
1.03378e-06
1.17424e-06
1.30979e-06
1.44134e-06
1.56905e-06
1.69361e-06
1.81508e-06
1.93353e-06
2.04838e-06
2.15919e-06
2.26339e-06
2.36011e-06
2.45199e-06
2.53953e-06
2.62158e-06
2.69892e-06
2.77165e-06
2.84089e-06
2.90734e-06
2.97376e-06
3.04239e-06
3.11783e-06
3.2006e-06
3.2923e-06
3.39362e-06
3.51018e-06
3.64436e-06
3.80567e-06
4.00209e-06
4.25197e-06
4.57686e-06
5.05224e-06
5.85751e-06
6.41e-06
5.27738e-06
3.48133e-06
2.18659e-06
1.31523e-06
7.50395e-07
3.96191e-07
1.93334e-07
1.20014e-07
1.85914e-07
4.32533e-07
9.14339e-07
1.63391e-06
2.27556e-06
1.51056e-06
7.16885e-07
3.20668e-07
1.22589e-07
3.19682e-08
1.38836e-08
5.0801e-08
1.30624e-07
2.43454e-07
3.81011e-07
5.3382e-07
6.9379e-07
8.53486e-07
1.01062e-06
1.16429e-06
1.31354e-06
1.45956e-06
1.60253e-06
1.7424e-06
1.87811e-06
2.00861e-06
2.13272e-06
2.25014e-06
2.36068e-06
2.46466e-06
2.56099e-06
2.65046e-06
2.73487e-06
2.81712e-06
2.89926e-06
2.98391e-06
3.0717e-06
3.16345e-06
3.25923e-06
3.36159e-06
3.46943e-06
3.5846e-06
3.71282e-06
3.85923e-06
4.02733e-06
4.22674e-06
4.46536e-06
4.76355e-06
5.14993e-06
5.71346e-06
6.67063e-06
7.39175e-06
6.20631e-06
4.18027e-06
2.66623e-06
1.62452e-06
9.38051e-07
4.98888e-07
2.37752e-07
1.25531e-07
1.65306e-07
3.9193e-07
8.51543e-07
1.54298e-06
2.16425e-06
1.35346e-06
5.91479e-07
2.20444e-07
5.9665e-08
1.43322e-08
4.16629e-08
1.14032e-07
2.1332e-07
3.30992e-07
4.62481e-07
6.02466e-07
7.46917e-07
8.91837e-07
1.03397e-06
1.1716e-06
1.30449e-06
1.43351e-06
1.55884e-06
1.68099e-06
1.79992e-06
1.91565e-06
2.02765e-06
2.13564e-06
2.23715e-06
2.33137e-06
2.42099e-06
2.50644e-06
2.58644e-06
2.66169e-06
2.73239e-06
2.79954e-06
2.86398e-06
2.92806e-06
2.99399e-06
3.06564e-06
3.14397e-06
3.23065e-06
3.32657e-06
3.43683e-06
3.56437e-06
3.7185e-06
3.90854e-06
4.15463e-06
4.48455e-06
4.97969e-06
5.82114e-06
6.48539e-06
5.50289e-06
3.75273e-06
2.40382e-06
1.45514e-06
8.24065e-07
4.2448e-07
1.97335e-07
1.19312e-07
1.97314e-07
4.63362e-07
9.50098e-07
1.62235e-06
2.16314e-06
1.44716e-06
6.77752e-07
2.92193e-07
1.05888e-07
2.63561e-08
1.6974e-08
5.97062e-08
1.42559e-07
2.5629e-07
3.92841e-07
5.43611e-07
7.00595e-07
8.57111e-07
1.01096e-06
1.16152e-06
1.30775e-06
1.45066e-06
1.59037e-06
1.72682e-06
1.85905e-06
1.9862e-06
2.10728e-06
2.22206e-06
2.33032e-06
2.43221e-06
2.52676e-06
2.61456e-06
2.69728e-06
2.77748e-06
2.85717e-06
2.93872e-06
3.023e-06
3.11078e-06
3.20233e-06
3.29977e-06
3.40214e-06
3.51126e-06
3.63302e-06
3.7721e-06
3.93203e-06
4.12251e-06
4.35302e-06
4.64593e-06
5.03592e-06
5.61781e-06
6.60654e-06
7.4302e-06
6.39975e-06
4.43446e-06
2.87422e-06
1.75902e-06
1.00814e-06
5.24501e-07
2.39839e-07
1.23593e-07
1.7599e-07
4.22477e-07
8.8808e-07
1.53569e-06
2.06166e-06
1.28305e-06
5.59297e-07
2.04049e-07
5.42196e-08
1.62407e-08
4.75165e-08
1.22296e-07
2.23199e-07
3.41593e-07
4.72471e-07
6.10983e-07
7.53079e-07
8.95282e-07
1.0345e-06
1.16939e-06
1.29969e-06
1.4262e-06
1.5491e-06
1.66881e-06
1.78516e-06
1.89817e-06
2.00735e-06
2.11257e-06
2.21137e-06
2.30302e-06
2.3903e-06
2.47357e-06
2.55146e-06
2.62458e-06
2.69325e-06
2.75829e-06
2.82073e-06
2.88248e-06
2.94577e-06
3.01373e-06
3.08777e-06
3.16948e-06
3.26016e-06
3.36425e-06
3.48548e-06
3.63274e-06
3.81683e-06
4.05898e-06
4.39216e-06
4.90006e-06
5.76016e-06
6.49149e-06
5.64298e-06
3.96389e-06
2.58846e-06
1.58018e-06
8.92152e-07
4.51443e-07
2.01548e-07
1.18131e-07
2.04575e-07
4.82125e-07
9.61264e-07
1.57569e-06
2.02491e-06
1.36577e-06
6.34305e-07
2.64506e-07
9.08194e-08
2.22786e-08
2.12571e-08
6.95573e-08
1.55291e-07
2.6981e-07
4.05271e-07
5.53887e-07
7.0784e-07
8.61107e-07
1.0117e-06
1.15918e-06
1.3024e-06
1.44221e-06
1.57868e-06
1.71177e-06
1.84059e-06
1.96449e-06
2.08257e-06
2.19467e-06
2.30056e-06
2.40025e-06
2.49291e-06
2.57895e-06
2.65993e-06
2.73808e-06
2.81538e-06
2.8939e-06
2.97475e-06
3.0586e-06
3.14595e-06
3.23854e-06
3.33554e-06
3.43863e-06
3.55404e-06
3.68592e-06
3.83803e-06
4.01988e-06
4.24267e-06
4.53002e-06
4.92147e-06
5.51376e-06
6.51449e-06
7.39319e-06
6.49975e-06
4.62087e-06
3.04465e-06
1.8759e-06
1.07135e-06
5.48437e-07
2.42353e-07
1.21695e-07
1.83245e-07
4.4187e-07
9.01257e-07
1.49456e-06
1.93369e-06
1.19752e-06
5.21906e-07
1.8676e-07
4.86722e-08
1.83855e-08
5.38876e-08
1.31104e-07
2.33519e-07
3.52493e-07
4.82698e-07
6.19657e-07
7.59407e-07
8.98902e-07
1.03529e-06
1.16751e-06
1.29525e-06
1.41927e-06
1.53969e-06
1.65689e-06
1.77062e-06
1.88093e-06
1.98731e-06
2.08976e-06
2.18585e-06
2.27489e-06
2.35973e-06
2.44076e-06
2.51649e-06
2.58746e-06
2.65408e-06
2.71703e-06
2.77746e-06
2.83688e-06
2.89758e-06
2.96197e-06
3.03186e-06
3.1087e-06
3.19428e-06
3.29242e-06
3.40764e-06
3.54835e-06
3.72679e-06
3.96469e-06
4.29893e-06
4.81267e-06
5.67521e-06
6.43675e-06
5.70481e-06
4.11419e-06
2.73722e-06
1.68801e-06
9.53701e-07
4.77102e-07
2.06259e-07
1.16408e-07
2.06739e-07
4.87311e-07
9.48054e-07
1.49929e-06
1.86743e-06
1.26956e-06
5.8638e-07
2.37177e-07
7.70827e-08
1.95258e-08
2.66187e-08
8.02693e-08
1.6877e-07
2.83952e-07
4.18242e-07
5.64584e-07
7.15453e-07
8.65399e-07
1.01274e-06
1.15715e-06
1.29735e-06
1.43408e-06
1.56732e-06
1.69709e-06
1.82257e-06
1.94325e-06
2.05835e-06
2.16774e-06
2.27118e-06
2.36857e-06
2.45924e-06
2.54345e-06
2.62266e-06
2.69877e-06
2.77371e-06
2.84928e-06
2.92676e-06
3.00673e-06
3.08995e-06
3.17777e-06
3.26949e-06
3.36664e-06
3.47578e-06
3.60063e-06
3.7452e-06
3.91879e-06
4.13409e-06
4.41544e-06
4.80581e-06
5.4007e-06
6.39565e-06
7.29075e-06
6.51554e-06
4.74062e-06
3.1753e-06
1.97339e-06
1.12701e-06
5.70811e-07
2.45589e-07
1.19739e-07
1.86056e-07
4.48527e-07
8.91141e-07
1.42465e-06
1.78657e-06
1.10009e-06
4.7954e-07
1.68369e-07
4.29928e-08
2.07253e-08
6.07365e-08
1.40444e-07
2.44289e-07
3.63697e-07
4.93153e-07
6.28467e-07
7.65859e-07
9.02645e-07
1.03625e-06
1.16583e-06
1.29104e-06
1.41256e-06
1.53045e-06
1.64509e-06
1.75618e-06
1.86375e-06
1.96735e-06
2.06705e-06
2.1604e-06
2.24676e-06
2.32913e-06
2.40785e-06
2.48137e-06
2.55018e-06
2.61473e-06
2.67561e-06
2.73399e-06
2.79114e-06
2.84925e-06
2.91022e-06
2.97612e-06
3.04825e-06
3.12886e-06
3.22129e-06
3.33076e-06
3.46524e-06
3.63817e-06
3.8714e-06
4.20425e-06
4.71712e-06
5.56759e-06
6.33027e-06
5.69747e-06
4.20589e-06
2.84898e-06
1.77712e-06
1.00815e-06
5.0158e-07
2.11799e-07
1.14199e-07
2.03416e-07
4.78492e-07
9.11945e-07
1.39888e-06
1.69698e-06
1.16194e-06
5.34257e-07
2.09879e-07
6.4445e-08
1.79148e-08
3.29622e-08
9.1779e-08
1.82943e-07
2.98665e-07
4.31708e-07
5.75663e-07
7.23387e-07
8.69935e-07
1.01401e-06
1.15533e-06
1.29249e-06
1.42611e-06
1.55614e-06
1.68261e-06
1.80479e-06
1.92229e-06
2.03442e-06
2.14107e-06
2.24197e-06
2.337e-06
2.42558e-06
2.50788e-06
2.58527e-06
2.65934e-06
2.73194e-06
2.80464e-06
2.87882e-06
2.95501e-06
3.03413e-06
3.1173e-06
3.20385e-06
3.29517e-06
3.39813e-06
3.51615e-06
3.65344e-06
3.81909e-06
4.02702e-06
4.30178e-06
4.68829e-06
5.27838e-06
6.25191e-06
7.13344e-06
6.4581e-06
4.79766e-06
3.26609e-06
2.05054e-06
1.1748e-06
5.91838e-07
2.4987e-07
1.17726e-07
1.83958e-07
4.4191e-07
8.59011e-07
1.33137e-06
1.62631e-06
9.94212e-07
4.3298e-07
1.48857e-07
3.72286e-08
2.32676e-08
6.8068e-08
1.50334e-07
2.55537e-07
3.75233e-07
5.0385e-07
6.37426e-07
7.72433e-07
9.06503e-07
1.03736e-06
1.1643e-06
1.28696e-06
1.40595e-06
1.52129e-06
1.63331e-06
1.74171e-06
1.84653e-06
1.94734e-06
2.04428e-06
2.13487e-06
2.2185e-06
2.29834e-06
2.37472e-06
2.446e-06
2.51262e-06
2.57509e-06
2.63389e-06
2.69022e-06
2.74511e-06
2.80066e-06
2.85836e-06
2.92041e-06
2.98805e-06
3.06386e-06
3.15087e-06
3.2548e-06
3.38335e-06
3.55075e-06
3.77877e-06
4.10765e-06
4.6135e-06
5.43947e-06
6.18093e-06
5.63069e-06
4.24351e-06
2.92428e-06
1.84689e-06
1.05515e-06
5.25027e-07
2.1852e-07
1.11736e-07
1.94721e-07
4.56476e-07
8.55614e-07
1.28021e-06
1.51917e-06
1.04651e-06
4.78747e-07
1.82498e-07
5.27909e-08
1.73289e-08
4.02347e-08
1.04054e-07
1.97776e-07
3.1392e-07
4.45641e-07
5.87107e-07
7.31624e-07
8.74705e-07
1.01548e-06
1.15365e-06
1.28774e-06
1.41824e-06
1.54505e-06
1.66823e-06
1.78713e-06
1.90146e-06
2.01061e-06
2.11448e-06
2.21279e-06
2.30537e-06
2.39177e-06
2.47212e-06
2.54762e-06
2.61964e-06
2.68992e-06
2.75982e-06
2.83076e-06
2.90326e-06
2.97836e-06
3.057e-06
3.1385e-06
3.22414e-06
3.32103e-06
3.43244e-06
3.56268e-06
3.72066e-06
3.92118e-06
4.18868e-06
4.56847e-06
5.14701e-06
6.08597e-06
6.93136e-06
6.33885e-06
4.798e-06
3.31846e-06
2.10715e-06
1.21459e-06
6.11736e-07
2.55515e-07
1.15819e-07
1.76971e-07
4.22704e-07
8.07334e-07
1.22016e-06
1.45829e-06
8.83279e-07
3.83427e-07
1.28468e-07
3.15557e-08
2.61512e-08
7.59574e-08
1.60844e-07
2.67324e-07
3.87154e-07
5.14821e-07
6.46569e-07
7.79154e-07
9.10492e-07
1.0386e-06
1.16288e-06
1.28298e-06
1.39939e-06
1.51212e-06
1.62146e-06
1.72713e-06
1.82916e-06
1.92717e-06
2.02134e-06
2.10915e-06
2.19001e-06
2.26729e-06
2.34128e-06
2.41028e-06
2.47471e-06
2.53506e-06
2.59179e-06
2.64604e-06
2.69869e-06
2.7517e-06
2.80626e-06
2.86463e-06
2.928e-06
2.99921e-06
3.0811e-06
3.17971e-06
3.3026e-06
3.46438e-06
3.68656e-06
4.00891e-06
4.50211e-06
5.29327e-06
5.99725e-06
5.51462e-06
4.23294e-06