/*--------------------------------*- C++ -*----------------------------------*\
| =========                 |                                                 |
| \\      /  F ield         | OpenFOAM: The Open Source CFD Toolbox           |
|  \\    /   O peration     | Version:  5.x                                   |
|   \\  /    A nd           | Web:      www.OpenFOAM.org                      |
|    \\/     M anipulation  |                                                 |
\*---------------------------------------------------------------------------*/
FoamFile
{
    version     2.0;
    format      ascii;
    class       volVectorField;
    location    "300/surface";
    object      UMean;
}
// * * * * * * * * * * * * * * * * * * * * * * * * * * * * * * * * * * * * * //

dimensions      [0 1 -1 0 0 0 0];

internalField   nonuniform List<vector> 
7200
(
(9.82376e-06 9.46584e-06 -3.43118e-25)
(-2.78135e-05 4.43508e-06 2.03473e-19)
(-4.09717e-05 6.50782e-06 -7.2418e-22)
(-4.55314e-05 7.03018e-06 -1.12953e-19)
(-8.88719e-05 4.93321e-06 -1.30239e-22)
(-8.90436e-05 2.44617e-06 -6.68322e-20)
(-0.000102268 -7.94331e-07 -4.71969e-20)
(-9.80737e-05 -3.31398e-06 -4.22997e-23)
(-0.00014785 -9.05679e-06 -2.13023e-25)
(-0.000135315 -1.22391e-05 6.36282e-21)
(-0.000131738 -1.50756e-05 1.83905e-20)
(-0.000113802 -1.56817e-05 -6.65962e-20)
(-0.000100029 -1.67454e-05 -9.33208e-20)
(-8.25965e-05 -1.68764e-05 -1.76893e-19)
(-6.68733e-05 -1.70312e-05 6.94818e-20)
(-5.35208e-05 -1.69176e-05 1.55698e-19)
(-4.0143e-05 -1.65566e-05 0)
(-3.0583e-05 -1.61722e-05 9.16699e-20)
(-2.19992e-05 -1.56559e-05 9.6317e-20)
(-1.59975e-05 -1.52514e-05 5.78824e-25)
(-8.07232e-06 -1.4343e-05 1.01914e-19)
(-4.64756e-07 -1.32124e-05 2.09981e-19)
(7.73212e-06 -1.19109e-05 1.05597e-19)
(1.48045e-05 -1.05646e-05 4.90774e-25)
(2.17571e-05 -9.19972e-06 -2.12641e-19)
(2.70988e-05 -7.9259e-06 -5.22373e-19)
(3.22863e-05 -6.6938e-06 -2.04268e-19)
(3.57796e-05 -5.58677e-06 9.81565e-20)
(3.84794e-05 -4.6573e-06 -1.39482e-22)
(3.98753e-05 -3.87963e-06 -1.33096e-22)
(4.24833e-05 -2.92451e-06 -1.25922e-22)
(4.47734e-05 -1.95415e-06 -8.02832e-20)
(4.72739e-05 -1.0736e-06 1.04934e-23)
(4.93744e-05 -1.20465e-07 1.34489e-19)
(5.19201e-05 6.89173e-07 5.92379e-20)
(5.38393e-05 1.66623e-06 5.08928e-20)
(5.64732e-05 2.36822e-06 1.71462e-19)
(5.83709e-05 3.47988e-06 6.67123e-20)
(6.10709e-05 3.97528e-06 -2.26402e-20)
(6.34067e-05 5.46202e-06 2.28811e-20)
(6.56684e-05 5.49727e-06 -4.89909e-22)
(7.08558e-05 8.03173e-06 4.33461e-20)
(6.94063e-05 7.12795e-06 8.29402e-20)
(8.69746e-05 1.32816e-05 9.78184e-20)
(0.000101354 2.47686e-05 1.67945e-24)
(0.000618736 0.000108553 -1.22753e-19)
(8.80381e-05 6.54194e-05 -1.94063e-19)
(-0.000173624 3.18091e-05 -3.07396e-19)
(-0.000342438 0.000139815 -1.57565e-18)
(-6.90908e-05 4.78445e-05 -4.67177e-19)
(-9.32518e-05 4.97357e-05 -1.7431e-18)
(-7.04605e-05 4.13973e-05 -3.44034e-18)
(-7.80936e-05 4.49365e-05 -1.78179e-18)
(-6.44608e-05 3.92937e-05 4.41819e-19)
(-5.82436e-05 3.63563e-05 8.6321e-19)
(-4.91147e-05 3.21679e-05 0)
(-4.65762e-05 3.09303e-05 3.38991e-19)
(-4.8061e-05 3.23201e-05 2.79603e-19)
(-5.27768e-05 3.66472e-05 0)
(-2.03946e-05 1.92634e-05 1.35964e-21)
(9.82176e-06 9.46e-06 -2.92926e-19)
(-2.78152e-05 4.43255e-06 -2.0454e-19)
(-4.08519e-05 6.51843e-06 -1.44085e-19)
(-4.51675e-05 7.05777e-06 -1.13128e-19)
(-8.86524e-05 4.93486e-06 -1.77427e-19)
(-8.86356e-05 2.49428e-06 -3.34081e-19)
(-0.000101877 -7.46149e-07 -9.4699e-20)
(-9.78551e-05 -3.30593e-06 2.85753e-20)
(-0.000147877 -9.05118e-06 3.00334e-20)
(-0.000135181 -1.22262e-05 -4.31546e-21)
(-0.000131633 -1.50664e-05 -2.69597e-26)
(-0.000113695 -1.56714e-05 -6.64759e-20)
(-9.99477e-05 -1.6739e-05 -9.34166e-20)
(-8.24629e-05 -1.68593e-05 -1.17665e-19)
(-6.67261e-05 -1.70117e-05 -1.38273e-19)
(-5.33624e-05 -1.68941e-05 7.78733e-20)
(-3.99669e-05 -1.65305e-05 1.70963e-19)
(-3.03784e-05 -1.61447e-05 1.83356e-19)
(-2.18334e-05 -1.56327e-05 3.85118e-19)
(-1.59016e-05 -1.52358e-05 2.97406e-19)
(-8.03007e-06 -1.43359e-05 3.05342e-19)
(-4.24959e-07 -1.32062e-05 4.19393e-19)
(7.76858e-06 -1.19063e-05 1.05741e-19)
(1.48404e-05 -1.05605e-05 1.06485e-19)
(2.17891e-05 -9.19348e-06 1.06325e-19)
(2.71416e-05 -7.91824e-06 -1.54292e-22)
(3.23095e-05 -6.68776e-06 -1.01928e-19)
(3.57893e-05 -5.58302e-06 -9.94452e-20)
(3.84597e-05 -4.65768e-06 9.55978e-20)
(3.98685e-05 -3.87772e-06 9.02852e-20)
(4.24861e-05 -2.92115e-06 -1.25481e-22)
(4.47806e-05 -1.95122e-06 -1.18753e-22)
(4.72734e-05 -1.07214e-06 7.36968e-20)
(4.93711e-05 -1.18885e-07 3.3549e-19)
(5.19158e-05 6.9176e-07 2.39252e-19)
(5.38313e-05 1.67002e-06 1.53952e-19)
(5.64636e-05 2.37238e-06 1.28889e-19)
(5.83552e-05 3.48285e-06 0)
(6.10592e-05 3.97142e-06 -3.35995e-23)
(6.33525e-05 5.43838e-06 0)
(6.57562e-05 5.36284e-06 1.75478e-29)
(7.09429e-05 8.02303e-06 -2.09536e-23)
(6.94326e-05 7.13221e-06 4.03121e-23)
(8.69754e-05 1.32905e-05 0)
(0.000101329 2.50172e-05 0)
(0.000632596 0.00010966 -1.34513e-19)
(8.81304e-05 6.51791e-05 -1.88176e-19)
(-0.000173601 3.18102e-05 -6.1882e-19)
(-0.000342458 0.000139825 -2.59536e-18)
(-6.9083e-05 4.78474e-05 -1.42112e-18)
(-9.32525e-05 4.97415e-05 -2.86147e-21)
(-7.04605e-05 4.13982e-05 -2.82141e-21)
(-7.80979e-05 4.49369e-05 2.9123e-21)
(-6.4463e-05 3.92893e-05 0)
(-5.82456e-05 3.6356e-05 2.82093e-21)
(-4.91208e-05 3.21674e-05 -1.41594e-24)
(-4.65806e-05 3.09294e-05 8.15644e-27)
(-4.80536e-05 3.23201e-05 9.00078e-25)
(-5.27772e-05 3.66495e-05 1.51822e-21)
(-2.04016e-05 1.92659e-05 1.72239e-25)
(-0.00126644 -0.000140785 -1.12787e-21)
(-0.0051169 -0.000640608 -7.98832e-19)
(-0.00818983 -0.0010713 -8.01141e-19)
(-0.0103812 -0.00136556 0)
(-0.0120723 -0.00160628 0)
(-0.0130294 -0.00174459 8.9328e-22)
(-0.0135374 -0.00182164 -7.02989e-22)
(-0.0135568 -0.00182389 -3.19653e-19)
(-0.0132217 -0.0017897 2.81978e-23)
(-0.0124753 -0.00169877 -7.98936e-20)
(-0.0114551 -0.00156559 -2.32791e-19)
(-0.0101408 -0.00139203 0)
(-0.00862705 -0.00118948 -9.06425e-22)
(-0.00694048 -0.000963772 7.95007e-19)
(-0.00514362 -0.000720752 -9.57512e-19)
(-0.00328472 -0.000468974 -2.22681e-18)
(-0.00139225 -0.000211725 1.81491e-21)
(0.000477886 4.33592e-05 1.99142e-21)
(0.00233196 0.000296297 2.12785e-21)
(0.00411494 0.000539841 -8.48918e-24)
(0.00584697 0.000776261 0)
(0.00747894 0.000999523 -1.59656e-18)
(0.00905299 0.001215 -1.6186e-18)
(0.0105115 0.0014151 4.97644e-24)
(0.0119155 0.00160761 3.20086e-18)
(0.0131975 0.00178371 4.73642e-18)
(0.0144446 0.00195471 -3.06988e-18)
(0.0155721 0.00210976 -4.47527e-18)
(0.0166877 0.00226275 -8.39607e-24)
(0.0176791 0.00239895 1.99574e-21)
(0.0186929 0.00253735 1.89007e-21)
(0.0195732 0.00265828 1.19346e-18)
(0.0205283 0.00278861 1.1086e-18)
(0.0213094 0.00289598 -9.97899e-19)
(0.0222631 0.00302574 -8.93691e-19)
(0.0229482 0.00312007 1.53267e-18)
(0.0239784 0.00325971 1.2865e-18)
(0.0245837 0.00334344 4.96035e-19)
(0.0257433 0.00349958 3.50115e-19)
(0.0264281 0.00359485 -3.52409e-19)
(0.0275614 0.00374488 6.12094e-21)
(0.0291267 0.00396313 -3.23913e-22)
(0.0290111 0.00393518 7.03256e-24)
(0.0350638 0.00477295 -1.12775e-21)
(0.0281124 0.00365847 -1.11596e-23)
(0.0516652 0.00699779 0)
(0.0279581 -0.00678184 -1.54272e-20)
(-0.00250293 0.00139063 -1.00468e-20)
(-0.00723793 0.00363608 2.19385e-18)
(-0.00256461 0.00129011 1.08987e-18)
(-0.00330152 0.00170676 9.91684e-19)
(-0.00258504 0.00134125 1.94099e-18)
(-0.00263736 0.00136512 9.19963e-19)
(-0.00225478 0.00116824 8.95161e-19)
(-0.0021712 0.00112518 0)
(-0.00217666 0.00113701 0)
(-0.0026533 0.00139148 5.47347e-21)
(-0.003401 0.00178517 0)
(-0.00416962 0.00217094 0)
(-0.00237839 0.00119433 -4.71182e-21)
(-0.00126638 -0.000140768 -1.12777e-21)
(-0.00511645 -0.000640574 -5.71308e-25)
(-0.00818922 -0.00107127 -1.1728e-21)
(-0.0103805 -0.00136547 4.14663e-24)
(-0.0120717 -0.00160617 -7.07936e-19)
(-0.013029 -0.00174456 -6.08459e-19)
(-0.0135371 -0.00182155 -4.77798e-19)
(-0.0135566 -0.00182378 -6.42342e-19)
(-0.0132217 -0.00178969 -4.41781e-19)
(-0.0124753 -0.00169879 3.63411e-20)
(-0.0114554 -0.00156562 -2.34557e-19)
(-0.0101411 -0.00139206 4.27725e-19)
(-0.00862739 -0.00118952 6.18174e-19)
(-0.00694086 -0.000963823 7.94947e-19)
(-0.00514401 -0.000720801 9.64704e-19)
(-0.00328523 -0.000469041 -4.29436e-24)
(-0.0013927 -0.000211792 0)
(0.000477362 4.32879e-05 1.97843e-21)
(0.00233153 0.000296247 -2.11979e-21)
(0.00411442 0.00053978 -2.21131e-21)
(0.00584657 0.000776208 0)
(0.00747849 0.000999459 -1.59187e-18)
(0.00905269 0.00121496 -1.61622e-18)
(0.0105112 0.00141505 2.37135e-21)
(0.0119153 0.00160758 -2.35241e-21)
(0.0131973 0.00178368 4.64173e-21)
(0.0144446 0.00195471 -1.76315e-23)
(0.015572 0.00210976 2.19521e-21)
(0.0166879 0.00226277 -1.42751e-18)
(0.0176792 0.00239895 -1.3672e-18)
(0.0186931 0.00253739 1.88964e-21)
(0.0195733 0.00265831 0)
(0.0205287 0.00278867 1.10828e-18)
(0.0213097 0.00289602 -1.00499e-18)
(0.0222636 0.00302581 -1.77727e-18)
(0.0229485 0.00312012 1.13044e-21)
(0.023979 0.00325979 -9.34556e-22)
(0.0245842 0.00334351 7.19625e-22)
(0.025744 0.00349968 5.10929e-22)
(0.0264286 0.00359492 1.73261e-19)
(0.0275623 0.00374492 -9.051e-21)
(0.0291276 0.00396325 3.19714e-22)
(0.0290121 0.00393531 -4.65613e-19)
(0.0350649 0.00477314 -7.68284e-19)
(0.0281131 0.00365659 0)
(0.0516726 0.00699975 1.76733e-18)
(0.0279599 -0.00677982 2.50973e-18)
(-0.00250144 0.00138994 8.07134e-24)
(-0.00723843 0.00363634 3.09874e-23)
(-0.00256454 0.00129008 7.03374e-21)
(-0.00330168 0.00170684 -1.01598e-18)
(-0.00258516 0.00134127 6.53505e-21)
(-0.00263745 0.0013651 9.15309e-19)
(-0.00225474 0.00116814 -5.79071e-24)
(-0.00217101 0.00112499 -5.69233e-21)
(-0.0021765 0.00113688 -5.57555e-21)
(-0.00265332 0.00139148 -2.66108e-24)
(-0.00340116 0.00178528 1.33548e-24)
(-0.00416981 0.0021711 1.27816e-24)
(-0.00237857 0.00119449 0)
(-0.0043789 -0.000103193 0)
(-0.0110165 -0.000425519 -1.12861e-21)
(-0.015259 -0.00128583 -1.53364e-18)
(-0.0177945 -0.00183736 -1.47301e-18)
(-0.019378 -0.00226131 -1.00823e-24)
(-0.0199654 -0.00251828 0)
(-0.0199278 -0.00265115 -6.57547e-22)
(-0.0192904 -0.00268825 3.00522e-19)
(-0.0181894 -0.00264835 2.37117e-22)
(-0.0166519 -0.00253719 3.84278e-20)
(-0.0147788 -0.00236361 3.20461e-22)
(-0.0125911 -0.00213577 7.97254e-19)
(-0.0101704 -0.00185681 1.14381e-18)
(-0.00756979 -0.00154122 1.08435e-21)
(-0.00484972 -0.00119287 5.51181e-24)
(-0.00206936 -0.000825365 1.50373e-21)
(0.000745785 -0.00044168 -1.69094e-21)
(0.00352885 -5.44995e-05 -1.84849e-21)
(0.00629657 0.000336072 1.97323e-21)
(0.00897119 0.000719666 2.04667e-21)
(0.0115917 0.00109886 2.12597e-21)
(0.0140827 0.00146235 -2.18173e-21)
(0.0165139 0.00181846 8.57733e-24)
(0.018791 0.00215478 -2.20888e-21)
(0.0210143 0.00248269 0)
(0.0230684 0.00278708 4.31184e-21)
(0.0250952 0.00308452 1.43104e-18)
(0.0269457 0.00335806 1.39476e-18)
(0.0288025 0.00362921 1.97309e-21)
(0.0304655 0.00387369 1.85722e-21)
(0.0321856 0.0041216 -1.75978e-21)
(0.0336852 0.00433916 1.64858e-21)
(0.035322 0.00457221 -1.52427e-21)
(0.0366703 0.00476439 1.38221e-21)
(0.0382956 0.00499117 8.88248e-24)
(0.039494 0.00515888 -1.06017e-21)
(0.0412077 0.00538697 0)
(0.0422726 0.00554252 6.72146e-22)
(0.0441489 0.00575469 -4.70405e-22)
(0.0452661 0.00596475 -6.58243e-24)
(0.0471227 0.00603742 -2.96833e-20)
(0.0492095 0.00658293 -4.30304e-19)
(0.0497895 0.00599417 -3.7522e-24)
(0.0565015 0.00787089 1.06766e-21)
(0.0509966 0.00480978 0)
(0.0729805 0.00958936 2.11669e-23)
(0.0539941 -0.00532737 7.18513e-21)
(0.00826604 0.000226573 -1.67091e-23)
(-0.00935567 0.00481336 7.08977e-21)
(-0.0048615 0.00215778 1.35231e-23)
(-0.00583178 0.00296001 -6.40253e-21)
(-0.00470946 0.00237774 -6.11467e-21)
(-0.00486439 0.00245194 -5.82218e-24)
(-0.00426479 0.00215199 -5.67642e-21)
(-0.0041903 0.00214963 5.50355e-21)
(-0.00424746 0.00227887 5.37966e-21)
(-0.0050988 0.00283174 1.9442e-25)
(-0.00634277 0.00351469 3.78757e-24)
(-0.00754803 0.00387352 -5.01982e-21)
(-0.00522847 0.0021093 0)
(-0.0043784 -0.000103161 1.08726e-21)
(-0.0110156 -0.000425489 -1.12807e-21)
(-0.0152582 -0.00128576 1.1242e-21)
(-0.0177938 -0.00183727 -9.84878e-25)
(-0.0193775 -0.00226117 0)
(-0.019965 -0.00251821 8.41822e-22)
(-0.0199276 -0.00265104 -5.3658e-25)
(-0.0192903 -0.00268816 3.00122e-19)
(-0.0181895 -0.0026483 1.36704e-19)
(-0.0166523 -0.00253718 3.82825e-20)
(-0.0147794 -0.00236364 2.19297e-19)
(-0.0125916 -0.00213584 -5.8532e-22)
(-0.0101709 -0.00185687 -8.43683e-22)
(-0.00757039 -0.00154129 -1.88895e-24)
(-0.00485033 -0.00119294 -9.76373e-24)
(-0.00207017 -0.00082546 -1.50239e-21)
(0.000745065 -0.000441778 -6.26706e-24)
(0.00352795 -5.46188e-05 0)
(0.00629584 0.000335973 7.84191e-24)
(0.00897033 0.000719551 2.04535e-21)
(0.0115911 0.00109877 2.13416e-21)
(0.014082 0.00146223 -7.23561e-24)
(0.0165134 0.00181837 -7.31133e-24)
(0.0187904 0.00215468 -2.20889e-21)
(0.021014 0.00248263 2.19327e-21)
(0.023068 0.002787 -2.15958e-21)
(0.0250951 0.00308448 2.10247e-21)
(0.0269455 0.00335801 -7.13473e-24)
(0.0288027 0.00362922 -1.96485e-21)
(0.0304655 0.00387367 0)
(0.032186 0.00412163 1.75984e-21)
(0.0336853 0.00433917 1.64182e-21)
(0.0353226 0.00457228 -1.03341e-18)
(0.0366706 0.00476443 -8.19339e-21)
(0.0382963 0.00499126 1.67009e-18)
(0.0394945 0.00515894 7.12247e-19)
(0.0412086 0.00538707 0)
(0.0422732 0.0055426 -6.83605e-22)
(0.0441499 0.00575481 0)
(0.0452669 0.00596487 -1.62586e-19)
(0.0471237 0.00603735 7.87067e-21)
(0.0492105 0.00658307 -1.28615e-24)
(0.0497907 0.00599426 4.33707e-19)
(0.0565029 0.00787099 7.30071e-19)
(0.0509983 0.00480924 -1.64781e-21)
(0.0729839 0.00958919 1.50993e-23)
(0.0539953 -0.00532654 2.3039e-23)
(0.00826835 0.00022583 -7.1885e-24)
(-0.00935595 0.00481358 7.14619e-21)
(-0.00486147 0.00215774 -4.24511e-25)
(-0.005832 0.00296014 9.74123e-19)
(-0.00470956 0.00237775 6.56866e-21)
(-0.00486444 0.00245189 -8.89642e-19)
(-0.00426473 0.00215185 0)
(-0.00419009 0.00214943 0)
(-0.00424728 0.00227882 5.38162e-21)
(-0.00509888 0.00283183 5.27805e-21)
(-0.00634324 0.00351498 5.1817e-21)
(-0.00754843 0.0038738 0)
(-0.00522893 0.00210953 4.58011e-21)
(-0.00842313 3.50619e-05 -1.05217e-21)
(-0.0157937 -2.44782e-05 1.07756e-21)
(-0.0188802 -0.00124066 7.20744e-19)
(-0.0206096 -0.0019207 6.9017e-19)
(-0.0213513 -0.00241734 9.38067e-25)
(-0.0213245 -0.00272901 -6.7553e-25)
(-0.0207332 -0.00289304 -8.21132e-19)
(-0.0196296 -0.00295541 -1.09908e-18)
(-0.0180989 -0.00293618 -3.75798e-19)
(-0.0161914 -0.0028398 3.18855e-20)
(-0.0139612 -0.00267316 -2.88891e-22)
(-0.0114433 -0.00244607 -3.60177e-19)
(-0.00870207 -0.00215779 -1.18191e-20)
(-0.0057978 -0.00182462 6.50105e-19)
(-0.00278037 -0.00144986 4.88325e-24)
(0.000294218 -0.00104868 -2.68247e-21)
(0.00340349 -0.000624053 0)
(0.006485 -0.000190646 6.56652e-24)
(0.00955434 0.000251483 -1.74413e-21)
(0.0125336 0.000690667 -1.83874e-21)
(0.0154674 0.0011292 -1.89725e-21)
(0.0182752 0.00155339 3.87004e-21)
(0.0210324 0.00197304 1.95329e-21)
(0.0236365 0.00237315 -2.67291e-18)
(0.0261985 0.00276694 -2.64373e-18)
(0.0285889 0.00313558 -1.93359e-21)
(0.030965 0.0034986 1.8994e-21)
(0.0331565 0.00383505 0)
(0.0353694 0.0041712 -1.77388e-21)
(0.0373743 0.00447629 -1.69164e-21)
(0.0394544 0.00478723 -3.23884e-18)
(0.041294 0.00506135 -3.00627e-18)
(0.0432882 0.00535517 9.30752e-19)
(0.0449766 0.00559937 8.37422e-19)
(0.0469449 0.00588292 1.17266e-24)
(0.048492 0.00609821 -1.29462e-18)
(0.0505186 0.00637475 -1.06566e-18)
(0.0519424 0.0065762 4.15321e-19)
(0.0541172 0.00681923 -2.87242e-19)
(0.0555124 0.0070756 -2.75041e-19)
(0.0578577 0.00714968 2.53352e-20)
(0.0596495 0.00772045 3.96203e-19)
(0.0619133 0.00713071 -6.16019e-24)
(0.0655873 0.00876491 6.2093e-24)
(0.0670428 0.00594122 1.51495e-21)
(0.0772733 0.00948376 0)
(0.0713194 -0.0041161 2.10794e-23)
(0.0232947 -0.00159772 -2.9125e-18)
(-0.00518964 0.00441264 -1.05104e-18)
(-0.00630784 0.00286942 2.00585e-18)
(-0.00754758 0.00377292 9.5517e-19)
(-0.00635511 0.00315252 1.81084e-18)
(-0.00664932 0.00331031 1.72647e-18)
(-0.0060141 0.00299107 8.41826e-19)
(-0.0060215 0.00308443 7.95559e-19)
(-0.00616432 0.00336785 1.57703e-18)
(-0.00726395 0.00417321 1.5458e-18)
(-0.00875875 0.00500408 -7.54855e-19)
(-0.0101379 0.00521335 -7.31724e-19)
(-0.00813852 0.00317143 -4.42718e-21)
(-0.00842226 3.50794e-05 -2.60561e-25)
(-0.0157926 -2.44266e-05 7.38419e-19)
(-0.0188795 -0.00124053 7.27585e-19)
(-0.020609 -0.00192058 1.0159e-21)
(-0.0213509 -0.00241717 0)
(-0.0213241 -0.0027289 -6.75577e-25)
(-0.020733 -0.0028929 -3.14006e-25)
(-0.0196295 -0.00295528 4.02686e-22)
(-0.0180991 -0.00293611 1.2564e-19)
(-0.0161919 -0.00283978 -3.18375e-20)
(-0.0139618 -0.00267318 3.85613e-19)
(-0.0114438 -0.00244614 -1.863e-21)
(-0.00870253 -0.00215784 -5.04259e-19)
(-0.00579842 -0.00182467 2.61105e-18)
(-0.002781 -0.00144991 2.35469e-18)
(0.000293369 -0.00104877 0)
(0.00340274 -0.000624146 -1.48872e-21)
(0.00648404 -0.00019077 0)
(0.00955356 0.000251375 0)
(0.0125327 0.000690532 0)
(0.0154668 0.00112908 -1.89724e-21)
(0.0182743 0.00155324 -1.31703e-18)
(0.0210319 0.00197293 -1.32732e-18)
(0.0236359 0.00237302 7.63974e-24)
(0.0261982 0.00276686 -7.68625e-24)
(0.0285883 0.00313547 7.43109e-24)
(0.0309649 0.00349854 -1.20585e-23)
(0.0331562 0.00383498 -1.83611e-21)
(0.0353695 0.00417118 -7.04142e-24)
(0.0373742 0.00447624 -1.2737e-23)
(0.0394548 0.00478724 -1.58046e-21)
(0.0412941 0.00506134 -1.04689e-23)
(0.0432888 0.00535522 -9.29433e-19)
(0.0449768 0.00559939 -8.37496e-19)
(0.0469456 0.00588299 -7.54027e-19)
(0.0484924 0.00609825 -6.55417e-19)
(0.0505195 0.00637484 -5.37368e-19)
(0.051943 0.00657628 -4.11929e-19)
(0.0541182 0.00681933 2.4649e-24)
(0.0555132 0.00707571 -2.47852e-24)
(0.0578587 0.00714962 3.05044e-23)
(0.0596506 0.00772058 2.03327e-19)
(0.0619144 0.00713075 4.14972e-19)
(0.0655888 0.00876497 0)
(0.0670443 0.00594043 1.50497e-21)
(0.0772748 0.00948346 0)
(0.0713202 -0.00411498 0)
(0.0232971 -0.00159831 -9.48714e-21)
(-0.00518945 0.00441281 -6.90037e-21)
(-0.00630783 0.00286942 2.42908e-23)
(-0.00754782 0.00377305 1.88864e-18)
(-0.0063552 0.0031525 3.6082e-18)
(-0.00664938 0.00331024 1.71496e-18)
(-0.0060141 0.00299095 5.48176e-21)
(-0.0060214 0.00308432 -5.22962e-24)
(-0.00616427 0.00336792 -1.03698e-20)
(-0.00726408 0.00417337 -5.08064e-21)
(-0.00875943 0.00500456 -9.96287e-21)
(-0.0101384 0.00521373 0)
(-0.00813915 0.00317175 -4.38692e-21)
(-0.0120122 0.000345788 1.00559e-21)
(-0.0181463 0.000549587 -4.99986e-25)
(-0.0196562 -0.00101794 6.76234e-19)
(-0.0207362 -0.0017707 6.36552e-19)
(-0.0209349 -0.00234809 8.35973e-22)
(-0.0205863 -0.00272476 0)
(-0.0197306 -0.00294507 7.36651e-19)
(-0.0184267 -0.00305952 9.79983e-19)
(-0.0167217 -0.00308487 3.33246e-19)
(-0.0146724 -0.00302806 -2.85946e-20)
(-0.0123051 -0.00289435 -2.41895e-22)
(-0.00966571 -0.00269307 -3.09756e-19)
(-0.00681292 -0.00242093 -8.90692e-19)
(-0.00380555 -0.00209545 -5.72868e-19)
(-0.00068922 -0.00172018 0)
(0.00248458 -0.00131153 7.86859e-19)
(0.00569152 -0.000872958 8.7443e-19)
(0.0088765 -0.000420427 0)
(0.0120476 4.53603e-05 1.49341e-21)
(0.0151353 0.00051221 6.05526e-24)
(0.0181789 0.000981042 6.47549e-24)
(0.0211051 0.00143754 -1.69681e-21)
(0.0239807 0.00189111 -1.15967e-18)
(0.0267131 0.00232629 1.1758e-18)
(0.0294032 0.00275581 2.33684e-18)
(0.0319331 0.00316015 -1.14527e-18)
(0.0344475 0.00355874 -1.11173e-18)
(0.0367875 0.00393044 1.59509e-21)
(0.0391458 0.00430176 -1.53717e-21)
(0.0413078 0.00464096 -1.11721e-23)
(0.0435389 0.00498548 1.90331e-18)
(0.0455444 0.00529176 1.80469e-18)
(0.0476889 0.00561697 -8.17828e-19)
(0.0495552 0.00589135 -7.52438e-19)
(0.0516624 0.00620237 -8.09861e-24)
(0.0534082 0.00644555 7.33514e-21)
(0.0555472 0.00674342 -4.46164e-19)
(0.0571931 0.00696872 -7.28777e-19)
(0.0594583 0.00722673 4.16559e-21)
(0.0610384 0.00748899 1.33423e-19)
(0.0635884 0.00758906 -3.98187e-23)
(0.0651839 0.00807733 -4.4156e-24)
(0.0683756 0.00761294 7.71452e-19)
(0.0701606 0.00881142 1.18392e-18)
(0.075159 0.00638052 -1.34775e-21)
(0.0779245 0.00874777 0)
(0.0829954 -0.0024178 0)
(0.0391252 -0.00295025 2.74652e-18)
(0.00394499 0.00305113 1.04363e-18)
(-0.00539472 0.00306875 -1.92321e-18)
(-0.00821308 0.00410907 -9.18264e-19)
(-0.00737493 0.00362321 -1.723e-18)
(-0.0078499 0.00388509 2.14792e-21)
(-0.0073747 0.00364259 8.05165e-19)
(-0.00750591 0.00385772 -7.6814e-19)
(-0.00772956 0.00430415 -1.50905e-18)
(-0.00889709 0.00527503 -7.4378e-19)
(-0.0103924 0.00611224 1.44965e-18)
(-0.01181 0.00614767 7.01264e-19)
(-0.0105538 0.00414522 4.20596e-21)
(-0.0120111 0.000345805 0)
(-0.0181452 0.000549662 -1.39428e-18)
(-0.0196555 -0.00101774 -1.3573e-18)
(-0.0207356 -0.00177057 0)
(-0.0209344 -0.00234791 -7.56865e-25)
(-0.0205858 -0.00272462 7.43987e-25)
(-0.0197303 -0.00294489 -7.41008e-19)
(-0.0184266 -0.00305936 -4.94933e-19)
(-0.016722 -0.00308476 -1.10981e-19)
(-0.0146729 -0.00302801 5.25177e-20)
(-0.0123056 -0.00289437 -1.75573e-19)
(-0.00966607 -0.00269313 3.0228e-19)
(-0.00681335 -0.00242096 8.83743e-19)
(-0.00380614 -0.00209548 -2.28668e-18)
(-0.000689836 -0.00172021 -1.38984e-18)
(0.00248377 -0.0013116 1.56842e-18)
(0.00569079 -0.000873039 8.75696e-19)
(0.00887557 -0.000420545 0)
(0.0120468 4.52523e-05 1.02221e-18)
(0.0151344 0.000512069 1.06962e-18)
(0.0181783 0.000980921 6.47546e-24)
(0.0211043 0.00143739 1.14678e-18)
(0.0239802 0.001891 2.3248e-18)
(0.0267124 0.00232615 3.48607e-18)
(0.0294029 0.00275571 2.30465e-18)
(0.0319325 0.00316001 0)
(0.0344474 0.00355866 1.12037e-18)
(0.0367871 0.00393033 1.07982e-18)
(0.039146 0.00430172 1.23413e-23)
(0.0413076 0.00464088 0)
(0.0435393 0.00498547 0)
(0.0455445 0.00529172 -1.31028e-21)
(0.0476895 0.00561701 8.20289e-19)
(0.0495554 0.00589135 1.49202e-18)
(0.0516631 0.00620242 1.31614e-18)
(0.0534086 0.00644558 5.64776e-19)
(0.055548 0.00674349 4.75574e-19)
(0.0571937 0.00696879 3.71336e-19)
(0.0594593 0.0072268 2.46467e-19)
(0.0610391 0.0074891 1.15697e-19)
(0.0635893 0.00758897 1.4011e-23)
(0.0651849 0.00807744 -1.79108e-19)
(0.0683765 0.00761294 -7.60249e-19)
(0.0701621 0.00881141 -5.92314e-19)
(0.07516 0.00637979 8.68523e-24)
(0.0779253 0.00874735 0)
(0.0829961 -0.00241661 0)
(0.0391275 -0.00295061 9.02863e-21)
(0.00394557 0.00305125 0)
(-0.00539462 0.00306875 -6.31969e-21)
(-0.0082133 0.00410919 -1.79726e-18)
(-0.00737502 0.00362315 -3.45886e-18)
(-0.00784999 0.00388501 -1.66209e-18)
(-0.00737477 0.00364255 -5.25175e-21)
(-0.00750596 0.00385766 5.08706e-21)
(-0.00772964 0.00430431 9.95457e-21)
(-0.00889722 0.00527523 7.1456e-24)
(-0.0103932 0.00611282 4.75438e-21)
(-0.0118106 0.00614809 2.26679e-24)
(-0.0105545 0.00414557 0)
(-0.0144034 0.000780001 6.60564e-19)
(-0.0185556 0.0010965 6.56765e-19)
(-0.0192053 -0.000774338 0)
(-0.0198806 -0.00157385 0)
(-0.0197821 -0.00223552 2.84167e-24)
(-0.019257 -0.00268067 0)
(-0.0182557 -0.00296733 -4.88283e-22)
(-0.0168445 -0.00314358 3.30262e-22)
(-0.0150446 -0.00322359 -1.06123e-19)
(-0.0129183 -0.0032157 1.67539e-20)
(-0.0104762 -0.00312486 2.15629e-22)
(-0.00777677 -0.00295778 -1.87305e-24)
(-0.00487342 -0.00271035 -7.63262e-19)
(-0.0018214 -0.00240072 -1.9662e-18)
(0.0013348 -0.00203317 -1.18492e-18)
(0.00454828 -0.0016252 -6.92564e-19)
(0.00779109 -0.00118092 -7.76288e-19)
(0.0110164 -0.000717535 -1.23049e-21)
(0.0142227 -0.000236464 -2.63488e-21)
(0.0173521 0.000249396 1.87769e-18)
(0.0204344 0.000739291 1.93638e-18)
(0.0234078 0.00121907 -1.46343e-21)
(0.0263254 0.00169675 4.94371e-21)
(0.0291116 0.00215742 1.78159e-20)
(0.0318485 0.00261205 1.47901e-21)
(0.0344409 0.003042 1.00592e-18)
(0.0370073 0.00346497 9.89e-19)
(0.0394174 0.00386162 -2.80654e-21)
(0.0418309 0.00425628 -1.83677e-18)
(0.044071 0.00461909 -1.7401e-18)
(0.0463595 0.00498479 8.31664e-19)
(0.0484523 0.00531287 7.85838e-19)
(0.0506517 0.00565665 -1.06138e-21)
(0.052617 0.00595104 -1.2976e-18)
(0.0547695 0.00627655 9.74005e-21)
(0.0566324 0.00653749 1.98622e-18)
(0.0587968 0.00684464 1.25217e-18)
(0.0605809 0.00708276 3.23209e-19)
(0.062848 0.00734632 2.1702e-19)
(0.0645675 0.00760232 1.04386e-19)
(0.0671367 0.00772013 3.64537e-23)
(0.0687415 0.00812362 0)
(0.0721734 0.00775964 -6.77316e-19)
(0.0733357 0.00857533 -1.05999e-18)
(0.0793227 0.00652984 -7.67126e-24)
(0.078626 0.00783125 -1.32531e-21)
(0.0894733 -0.000622674 4.36092e-21)
(0.053824 -0.00355074 1.86025e-23)
(0.0162141 0.00147466 1.22825e-23)
(-0.000989322 0.00260463 -1.2155e-20)
(-0.0073637 0.00400224 1.09173e-23)
(-0.00759067 0.00376058 5.40179e-21)
(-0.00832017 0.00413279 -1.57384e-18)
(-0.00817232 0.0040439 -1.53893e-18)
(-0.00845326 0.0043794 -7.53015e-19)
(-0.00873987 0.0049664 -7.26845e-19)
(-0.00981547 0.00601054 -7.15458e-19)
(-0.0111654 0.0067866 -6.89773e-19)
(-0.012602 0.0067208 4.40693e-21)
(-0.0121109 0.00492317 0)
(-0.0144022 0.000780012 0)
(-0.0185546 0.0010966 6.51641e-19)
(-0.0192047 -0.00077409 6.27044e-19)
(-0.01988 -0.00157371 -8.5918e-22)
(-0.0197817 -0.00223534 -7.61101e-22)
(-0.0192565 -0.00268053 6.36887e-22)
(-0.0182555 -0.00296712 6.64315e-19)
(-0.0168445 -0.00314336 4.43126e-19)
(-0.0150449 -0.00322343 1.06162e-19)
(-0.0129188 -0.00321563 -3.82628e-20)
(-0.0104766 -0.00312487 -5.70709e-21)
(-0.00777708 -0.00295782 -6.55745e-21)
(-0.00487384 -0.00271036 -3.88665e-19)
(-0.00182195 -0.00240073 -2.52361e-24)
(0.0013342 -0.00203318 -5.99844e-19)
(0.00454751 -0.00162525 -7.01796e-19)
(0.00779038 -0.00118099 1.52026e-18)
(0.0110155 -0.00071764 1.66533e-18)
(0.014222 -0.000236566 -9.00486e-19)
(0.0173512 0.000249259 -9.50673e-19)
(0.0204337 0.000739168 -5.52418e-24)
(0.0234071 0.00121891 0)
(0.026325 0.00169663 -1.01428e-18)
(0.029111 0.00215727 -3.07362e-18)
(0.0318482 0.00261194 -2.04814e-18)
(0.0344404 0.00304186 1.4778e-21)
(0.0370072 0.00346488 -9.85556e-19)
(0.0394171 0.00386151 -9.61187e-19)
(0.0418311 0.00425622 1.34565e-21)
(0.0440708 0.004619 1.27514e-21)
(0.0463599 0.00498476 9.86123e-24)
(0.0484524 0.00531282 0)
(0.0506523 0.00565666 0)
(0.0526172 0.00595103 -6.53461e-19)
(0.0547702 0.00627659 -1.167e-18)
(0.0566328 0.00653751 -5.04989e-19)
(0.0587976 0.00684469 4.0994e-19)
(0.0605814 0.00708283 6.25123e-19)
(0.062849 0.00734637 -9.1921e-21)
(0.0645682 0.00760241 -1.0417e-19)
(0.0671376 0.00772003 1.37509e-23)
(0.0687424 0.00812371 -1.73664e-19)
(0.0721744 0.00775961 -3.59773e-19)
(0.073337 0.00857528 6.1594e-21)
(0.0793236 0.0065292 -7.67012e-24)
(0.0786266 0.00783079 -1.83171e-18)
(0.0894738 -0.00062164 -2.78292e-18)
(0.0538261 -0.00355089 1.86012e-23)
(0.0162149 0.00147477 6.45613e-21)
(-0.00098903 0.00260462 -6.05433e-21)
(-0.00736382 0.00400231 1.09163e-23)
(-0.00759076 0.0037605 -1.07201e-23)
(-0.00832029 0.00413275 0)
(-0.00817245 0.00404393 0)
(-0.0084534 0.0043794 -4.86626e-21)
(-0.00874002 0.00496664 -4.75855e-21)
(-0.0098156 0.00601079 4.5452e-24)
(-0.0111661 0.0067872 0)
(-0.0126027 0.00672128 0)
(-0.0121116 0.00492356 4.09744e-21)
(-0.0156107 0.00125077 -6.23573e-19)
(-0.017953 0.00153768 5.11075e-21)
(-0.0182581 -0.00054397 5.86289e-19)
(-0.0186362 -0.0013801 7.90412e-25)
(-0.0183429 -0.00212272 -6.94817e-22)
(-0.0176893 -0.00263695 -5.83019e-22)
(-0.0165802 -0.00299364 3.06807e-19)
(-0.0150887 -0.00323548 2.06032e-19)
(-0.0132165 -0.00337454 -3.80922e-21)
(-0.0110303 -0.00341953 -4.2958e-21)
(-0.00853361 -0.00337534 0)
(-0.00579568 -0.00324523 -3.43808e-22)
(-0.00286305 -0.00302574 6.88909e-19)
(0.000212038 -0.00273495 1.77866e-18)
(0.00338566 -0.00237838 1.07565e-18)
(0.00661443 -0.00197411 3.73423e-24)
(0.00986747 -0.00152739 -3.74035e-24)
(0.0131053 -0.0010563 1.1073e-21)
(0.0163176 -0.000563074 1.34387e-23)
(0.0194583 -6.16114e-05 -1.68538e-18)
(0.022547 0.00044578 -1.75561e-18)
(0.0255344 0.000945171 1.31855e-21)
(0.0284591 0.001443 9.04981e-19)
(0.0312634 0.00192514 9.15194e-19)
(0.03401 0.00240041 9.00341e-19)
(0.0366278 0.00285163 8.83003e-19)
(0.0392067 0.00329423 -1.7434e-18)
(0.0416487 0.00371139 -1.68127e-18)
(0.0440755 0.00412422 1.63855e-18)
(0.046355 0.00450598 3.12972e-18)
(0.0486575 0.00488732 2.93118e-18)
(0.0507984 0.00523258 1.36281e-18)
(0.0530084 0.00558913 1.26659e-18)
(0.0550323 0.00589884 2.29143e-18)
(0.0571875 0.00623295 8.93768e-21)
(0.0591241 0.00650677 -8.90255e-19)
(0.0612755 0.00681769 -5.25737e-22)
(0.0631525 0.00706366 0)
(0.0653814 0.0073273 2.76084e-22)
(0.0672163 0.00757398 -1.25407e-22)
(0.0697115 0.00770036 -2.77696e-25)
(0.0714384 0.00803114 0)
(0.0747537 0.00773414 0)
(0.0759498 0.00825644 4.7315e-19)
(0.0817356 0.00653377 7.11588e-19)
(0.0801376 0.00695385 1.21651e-21)
(0.0919612 0.000789382 -3.77031e-21)
(0.0664122 -0.00344339 2.33729e-18)
(0.0299309 0.000100316 1.86143e-18)
(0.00676265 0.00173621 2.23259e-23)
(-0.00455909 0.00352271 0)
(-0.00688994 0.0036285 -5.12622e-21)
(-0.00807757 0.0040924 -4.901e-21)
(-0.00833838 0.00417962 -4.74934e-21)
(-0.00879115 0.00461666 7.05989e-19)
(-0.00913545 0.00531097 6.89128e-19)
(-0.0100641 0.00638335 3.75072e-24)
(-0.0112623 0.0071172 6.83554e-24)
(-0.0127415 0.00703167 -4.14479e-21)
(-0.0128914 0.00549783 0)
(-0.0156096 0.00125074 6.30171e-19)
(-0.0179521 0.00153779 6.15345e-19)
(-0.0182575 -0.000543694 0)
(-0.0186356 -0.00137995 7.87151e-22)
(-0.0183425 -0.00212255 4.75739e-19)
(-0.0176889 -0.0026368 3.95099e-19)
(-0.0165801 -0.00299342 3.06841e-19)
(-0.0150887 -0.00323524 2.06365e-19)
(-0.0132167 -0.00337433 -9.60326e-20)
(-0.0110306 -0.00341943 1.52981e-20)
(-0.00853383 -0.00337534 -1.27498e-19)
(-0.00579596 -0.00324526 -2.38348e-19)
(-0.00286345 -0.00302572 0)
(0.000211504 -0.00273493 6.43504e-22)
(0.00338507 -0.00237837 -1.12027e-23)
(0.0066137 -0.00197414 -1.22978e-18)
(0.00986678 -0.00152745 -2.75359e-18)
(0.0131045 -0.0010564 -1.51149e-18)
(0.0163169 -0.000563175 1.18225e-21)
(0.0194575 -6.17466e-05 1.24217e-21)
(0.0225464 0.000445652 8.69727e-19)
(0.0255336 0.000945013 8.84844e-19)
(0.0284587 0.00144286 -1.33121e-21)
(0.0312628 0.00192497 -7.19206e-26)
(0.0340097 0.00240028 -9.01692e-19)
(0.0366274 0.00285148 8.94576e-19)
(0.0392067 0.00329412 -8.8477e-19)
(0.0416484 0.00371126 -4.21509e-18)
(0.0440756 0.00412414 -3.2527e-18)
(0.0463549 0.00450588 -1.54596e-18)
(0.0486578 0.00488727 7.35678e-19)
(0.0507985 0.00523253 6.81442e-19)
(0.0530089 0.00558912 0)
(0.0550326 0.00589883 -5.72474e-19)
(0.0571882 0.00623297 -5.0405e-19)