/*--------------------------------*- C++ -*----------------------------------*\
| =========                 |                                                 |
| \\      /  F ield         | OpenFOAM: The Open Source CFD Toolbox           |
|  \\    /   O peration     | Version:  5.x                                   |
|   \\  /    A nd           | Web:      www.OpenFOAM.org                      |
|    \\/     M anipulation  |                                                 |
\*---------------------------------------------------------------------------*/
FoamFile
{
    version     2.0;
    format      ascii;
    class       volSymmTensorField;
    location    "300/surface";
    object      UPrime2Mean;
}
// * * * * * * * * * * * * * * * * * * * * * * * * * * * * * * * * * * * * * //

dimensions      [0 2 -2 0 0 0 0];

internalField   nonuniform List<symmTensor> 
7200
(
(2.04063e-09 3.29878e-10 3.56304e-27 5.4702e-10 9.38633e-28 1.49436e-44)
(6.28226e-09 9.85136e-10 1.86135e-27 4.65142e-10 1.3101e-27 1.65146e-44)
(8.33884e-08 7.64098e-09 -1.5376e-26 1.00496e-09 -1.96908e-28 1.27038e-44)
(1.09951e-07 8.41822e-09 8.17954e-30 1.61303e-09 -7.88697e-32 3.66442e-51)
(1.8961e-06 1.18434e-07 3.88717e-26 8.06444e-09 2.9223e-27 1.68941e-45)
(1.67353e-06 1.58655e-07 9.76712e-26 1.59537e-08 9.72937e-27 6.91724e-45)
(2.48557e-06 2.52808e-07 -2.40306e-25 2.7066e-08 -2.519e-26 2.91261e-44)
(2.64226e-06 2.47137e-07 0 2.47117e-08 0 0)
(3.64441e-06 3.7012e-07 -4.23267e-25 3.89842e-08 -4.75708e-26 1.1392e-43)
(3.03019e-06 3.38117e-07 8.51152e-25 3.82496e-08 9.51079e-26 6.69758e-43)
(2.82043e-06 3.21062e-07 7.25681e-28 3.7016e-08 8.20992e-29 6.97501e-49)
(2.14765e-06 2.4531e-07 -3.90666e-25 2.8428e-08 -4.30043e-26 2.64759e-43)
(1.68661e-06 1.94021e-07 0 2.27051e-08 0 0)
(1.24159e-06 1.42411e-07 -2.45123e-25 1.67104e-08 -2.51837e-26 2.9807e-43)
(9.12258e-07 1.05019e-07 1.58568e-25 1.24472e-08 1.55083e-26 2.69298e-43)
(6.85089e-07 7.82466e-08 0 9.28352e-09 0 0)
(5.14346e-07 5.90356e-08 0 7.11101e-09 0 0)
(4.05331e-07 4.62479e-08 3.76053e-26 5.60466e-09 1.2539e-27 1.43688e-43)
(3.19529e-07 3.68832e-08 2.32234e-26 4.55337e-09 9.60904e-29 9.28086e-44)
(2.43371e-07 2.86884e-08 0 3.64232e-09 0 0)
(1.67767e-07 2.04692e-08 0 2.73914e-09 0 0)
(1.13099e-07 1.41092e-08 -2.08553e-26 1.99824e-09 -1.22459e-28 5.34335e-44)
(6.67935e-08 8.83471e-09 4.7766e-29 1.39524e-09 -3.07591e-30 7.66177e-49)
(4.14983e-08 5.87581e-09 0 1.04989e-09 0 0)
(2.27403e-08 3.84397e-09 0 8.29372e-10 0 0)
(1.58849e-08 3.12088e-09 3.23147e-27 7.56161e-10 2.82593e-27 5.49183e-44)
(1.34508e-08 2.97515e-09 8.15605e-27 7.5643e-10 3.47377e-27 5.5288e-44)
(1.36974e-08 3.08556e-09 0 7.84593e-10 0 0)
(1.27045e-08 2.89586e-09 7.29878e-27 7.4646e-10 3.2689e-27 5.19232e-44)
(1.18909e-08 2.74048e-09 -1.10172e-26 7.17362e-10 -5.94937e-27 2.02571e-43)
(1.1985e-08 2.75198e-09 0 7.18514e-10 0 0)
(1.20477e-08 2.76936e-09 0 7.233e-10 0 0)
(1.1675e-08 2.71697e-09 -5.54485e-27 7.16193e-10 -3.08155e-27 5.57451e-44)
(1.1837e-08 2.74073e-09 1.96371e-29 7.22395e-10 1.19701e-29 9.01918e-49)
(1.20428e-08 2.77218e-09 -4.75332e-27 7.29294e-10 -3.06262e-27 6.05625e-44)
(1.22943e-08 2.80937e-09 0 7.37266e-10 0 0)
(1.26475e-08 2.86118e-09 -4.01609e-27 7.47746e-10 -3.09164e-27 6.6841e-44)
(1.31092e-08 2.9295e-09 0 7.61802e-10 0 0)
(1.37055e-08 3.01791e-09 2.70377e-27 7.79448e-10 3.06927e-27 7.56416e-44)
(1.44667e-08 3.13577e-09 -2.07264e-27 8.04227e-10 -3.1001e-27 8.17641e-44)
(1.53277e-08 3.26696e-09 -1.0699e-28 8.33455e-10 -3.33685e-29 1.68069e-48)
(1.66328e-08 3.45658e-09 2.12609e-30 8.76708e-10 2.47294e-29 5.93618e-48)
(2.00338e-08 3.90367e-09 4.61854e-27 9.60707e-10 -5.96601e-27 4.16412e-43)
(2.50465e-08 4.56166e-09 -5.44919e-27 1.18462e-09 2.72017e-27 1.15908e-43)
(3.33182e-07 3.99258e-08 2.53824e-26 7.83181e-09 -1.35539e-29 1.2813e-43)
(1.01439e-05 1.30265e-06 6.33526e-27 1.68135e-07 7.9929e-28 1.17781e-47)
(4.86984e-08 -1.59923e-08 1.13821e-28 7.74026e-09 -3.78358e-29 7.68987e-48)
(1.29062e-08 -1.05577e-08 0 9.63937e-09 0 0)
(6.87799e-09 -6.35129e-09 4.19518e-26 9.54473e-09 2.61649e-27 1.01125e-41)
(3.98736e-09 -4.43991e-09 1.98736e-26 7.88906e-09 1.37298e-27 1.73938e-42)
(3.41506e-09 -3.87319e-09 7.24487e-30 6.96039e-09 -9.18099e-31 1.35094e-48)
(3.71541e-09 -3.75397e-09 2.04332e-27 6.40968e-09 -6.03404e-28 1.11713e-42)
(4.25776e-09 -3.81147e-09 0 6.05008e-09 0 0)
(4.10682e-09 -3.6264e-09 8.65775e-27 5.65088e-09 -8.96713e-27 6.97794e-43)
(3.49151e-09 -3.2369e-09 -8.02478e-30 5.16358e-09 7.79941e-30 1.2393e-49)
(3.37967e-09 -2.9422e-09 2.17789e-26 4.65623e-09 -1.9092e-26 4.73397e-43)
(3.4147e-09 -2.7222e-09 -1.11085e-29 4.06931e-09 9.31941e-30 1.1125e-49)
(3.54971e-09 -2.53726e-09 1.75124e-26 3.40651e-09 -1.65103e-26 2.81668e-43)
(3.54048e-09 -2.21834e-09 1.02287e-30 2.4683e-09 -9.34566e-31 1.60923e-51)
(2.8454e-09 -1.32772e-09 -8.43868e-31 1.15163e-09 6.03797e-31 1.30067e-51)
(2.22226e-09 3.47831e-10 4.11673e-27 5.14055e-10 9.1461e-28 1.64508e-44)
(6.6867e-09 1.03463e-09 2.73819e-27 4.42982e-10 1.37269e-27 1.86758e-44)
(8.32692e-08 7.67884e-09 1.36067e-26 9.93065e-10 -1.42252e-28 1.66137e-44)
(1.34556e-07 9.84047e-09 -7.05323e-30 1.67425e-09 1.6804e-31 2.99589e-51)
(1.89396e-06 1.19515e-07 4.63643e-26 8.22569e-09 4.81766e-27 1.34397e-44)
(1.68572e-06 1.6028e-07 -2.37964e-28 1.61993e-08 -5.1973e-29 7.71159e-48)
(2.48983e-06 2.53119e-07 0 2.71226e-08 0 0)
(2.68194e-06 2.50125e-07 3.32184e-25 2.49581e-08 3.37839e-26 6.56224e-44)
(3.64705e-06 3.71485e-07 4.2475e-25 3.92408e-08 4.79495e-26 1.15097e-43)
(3.03627e-06 3.39118e-07 4.26043e-25 3.84033e-08 4.77192e-26 1.67529e-43)
(2.81425e-06 3.20324e-07 4.45318e-25 3.69321e-08 5.03799e-26 2.21467e-43)
(2.14287e-06 2.44863e-07 3.91087e-25 2.83908e-08 4.30485e-26 2.66537e-43)
(1.67603e-06 1.92827e-07 3.19381e-25 2.25718e-08 3.49506e-26 2.8897e-43)
(1.23503e-06 1.41612e-07 -2.43488e-25 1.66177e-08 -2.49829e-26 2.9785e-43)
(9.06064e-07 1.0426e-07 1.57567e-25 1.23566e-08 1.5432e-26 2.67203e-43)
(6.81015e-07 7.77544e-08 0 9.22761e-09 0 0)
(5.1137e-07 5.86705e-08 0 7.07085e-09 0 0)
(4.0355e-07 4.60264e-08 0 5.58326e-09 0 0)
(3.19249e-07 3.68053e-08 2.32242e-26 4.54338e-09 5.7532e-29 9.28542e-44)
(2.43537e-07 2.86932e-08 2.52866e-26 3.64313e-09 6.04403e-28 5.71617e-44)
(1.67823e-07 2.04726e-08 1.07604e-28 2.73949e-09 3.32853e-30 8.57502e-49)
(1.13134e-07 1.41057e-08 2.02798e-26 1.99598e-09 1.0619e-29 5.3718e-44)
(6.6782e-08 8.82497e-09 1.39906e-26 1.3914e-09 -7.12746e-28 5.53037e-44)
(4.13967e-08 5.85806e-09 0 1.04607e-09 0 0)
(2.27415e-08 3.84091e-09 0 8.27801e-10 0 0)
(1.59976e-08 3.13759e-09 -3.69125e-27 7.57969e-10 -2.96022e-27 5.69709e-44)
(1.35455e-08 2.98959e-09 -8.35753e-27 7.57858e-10 -3.52481e-27 5.63666e-44)
(1.37367e-08 3.09256e-09 -9.43302e-27 7.8546e-10 -3.72516e-27 5.61854e-44)
(1.27521e-08 2.90608e-09 -7.84588e-27 7.48707e-10 -3.42537e-27 5.37904e-44)
(1.18271e-08 2.73191e-09 -5.75018e-27 7.17103e-10 -3.05698e-27 5.15793e-44)
(1.19105e-08 2.74276e-09 -2.19606e-29 7.18897e-10 -1.19874e-29 8.03812e-49)
(1.19553e-08 2.75653e-09 -1.1189e-26 7.2318e-10 -6.28335e-27 2.2667e-43)
(1.16081e-08 2.70875e-09 -5.93163e-27 7.17082e-10 -3.20753e-27 5.73872e-44)
(1.17952e-08 2.73345e-09 -1.16838e-31 7.2243e-10 1.74462e-31 6.43416e-52)
(1.20372e-08 2.76977e-09 -5.36766e-27 7.30249e-10 -3.26696e-27 6.37545e-44)
(1.2321e-08 2.81715e-09 -5.09195e-27 7.40505e-10 -3.29221e-27 6.73512e-44)
(1.25677e-08 2.8563e-09 -4.67566e-27 7.49769e-10 -3.2923e-27 7.05544e-44)
(1.29216e-08 2.9026e-09 1.68271e-29 7.60182e-10 1.2863e-29 1.10233e-48)
(1.35943e-08 3.00045e-09 3.60192e-27 7.79868e-10 3.32385e-27 7.8533e-44)
(1.44138e-08 3.1269e-09 -2.97757e-27 8.07209e-10 -3.36279e-27 8.49998e-44)
(1.52592e-08 3.25622e-09 -1.04717e-28 8.38633e-10 -3.28233e-29 1.62815e-48)
(1.64487e-08 3.4325e-09 0 8.85695e-10 0 0)
(1.99998e-08 3.89509e-09 2.27424e-27 9.88037e-10 -6.53649e-27 4.36296e-43)
(2.46904e-08 4.54576e-09 -2.57208e-29 1.09374e-09 2.59897e-29 6.97118e-48)
(3.38045e-07 2.98373e-08 2.28148e-26 1.69679e-08 -5.13854e-28 1.33238e-43)
(4.46225e-05 5.72907e-06 0 7.35735e-07 0 0)
(5.01332e-08 -2.10128e-08 -8.41988e-27 1.84348e-08 7.63419e-27 4.9541e-43)
(1.30129e-08 -1.04308e-08 -3.43533e-26 1.02408e-08 1.94502e-27 2.04254e-42)
(6.57953e-09 -6.40448e-09 2.62412e-29 9.28509e-09 -2.44846e-30 2.2777e-48)
(3.9377e-09 -4.48036e-09 -4.66775e-29 7.7383e-09 1.16439e-29 6.6749e-48)
(3.62786e-09 -3.99865e-09 1.34338e-26 6.87023e-09 -6.474e-27 1.45635e-42)
(3.9267e-09 -3.87233e-09 0 6.3165e-09 0 0)
(4.48713e-09 -3.93623e-09 -6.12413e-27 5.98179e-09 8.65506e-27 9.0942e-43)
(4.34928e-09 -3.75068e-09 2.24223e-29 5.58684e-09 -2.4669e-29 2.67076e-48)
(3.75139e-09 -3.37321e-09 -2.02163e-26 5.12482e-09 1.82543e-26 5.35778e-43)
(3.67167e-09 -3.07238e-09 1.22299e-29 4.6284e-09 -1.00949e-29 1.18966e-49)
(3.59557e-09 -2.81371e-09 2.11538e-26 4.06637e-09 -2.00334e-26 4.50652e-43)
(3.62535e-09 -2.5896e-09 0 3.42791e-09 0 0)
(3.6004e-09 -2.24436e-09 9.78643e-31 2.50077e-09 -1.01614e-30 1.67635e-51)
(2.78779e-09 -1.30722e-09 2.34202e-27 1.16579e-09 -3.17736e-27 6.69821e-44)
(4.95385e-06 6.60544e-07 4.99105e-25 8.9688e-08 6.93762e-26 9.7203e-44)
(7.20444e-06 8.98343e-07 4.79938e-25 1.15404e-07 6.12296e-26 8.7416e-44)
(8.84974e-06 1.12346e-06 3.50487e-25 1.44984e-07 4.54919e-26 5.24859e-44)
(9.92901e-06 8.57752e-07 1.59702e-25 1.0994e-07 1.15499e-26 1.53904e-44)
(1.47098e-05 1.70426e-06 -4.92186e-26 2.09152e-07 -5.32529e-27 9.15563e-46)
(1.39644e-05 1.66261e-06 -1.39248e-25 2.22452e-07 -2.1555e-26 9.52813e-45)
(1.73617e-05 2.10291e-06 3.07361e-25 2.91998e-07 5.5524e-26 4.01888e-44)
(1.66995e-05 1.86182e-06 -2.92496e-25 2.48249e-07 -7.25303e-26 8.49281e-44)
(1.81219e-05 2.37192e-06 0 3.33585e-07 0 0)
(1.54089e-05 2.14362e-06 -2.65546e-25 3.18213e-07 -8.72399e-26 2.09252e-43)
(1.47186e-05 2.09771e-06 2.08642e-25 3.13451e-07 7.69326e-26 2.75322e-43)
(1.2819e-05 1.84662e-06 -3.59764e-26 2.83061e-07 -5.89926e-26 3.33238e-43)
(1.20141e-05 1.70786e-06 -1.29068e-25 2.55034e-07 2.66102e-26 3.82051e-43)
(1.0939e-05 1.55461e-06 -2.69628e-25 2.33262e-07 3.23421e-27 4.14251e-43)
(1.03841e-05 1.44876e-06 4.41146e-25 2.11155e-07 3.10503e-26 4.33933e-43)
(9.54858e-06 1.33325e-06 0 1.93486e-07 0 0)
(9.22681e-06 1.27072e-06 5.96812e-25 1.80963e-07 6.68086e-26 4.39316e-43)
(8.33843e-06 1.15186e-06 5.54873e-25 1.63582e-07 6.82456e-26 4.3465e-43)
(8.14678e-06 1.12643e-06 6.04992e-25 1.58754e-07 7.91362e-26 4.18937e-43)
(7.11064e-06 9.95463e-07 5.11139e-25 1.41234e-07 6.97915e-26 4.0969e-43)
(6.96177e-06 9.73888e-07 2.26041e-27 1.37569e-07 3.13187e-28 6.25001e-48)
(5.84682e-06 8.2172e-07 0 1.16422e-07 0 0)
(5.82549e-06 8.13341e-07 1.61313e-27 1.14329e-07 2.23984e-28 5.90704e-48)
(4.70837e-06 6.58107e-07 -1.38649e-27 9.24927e-08 -1.94918e-28 5.94282e-48)
(4.86883e-06 6.7508e-07 -3.54292e-25 9.39948e-08 -4.91976e-26 3.83867e-43)
(3.76822e-06 5.22451e-07 -2.48156e-25 7.26353e-08 -3.46629e-26 3.78651e-43)
(4.10069e-06 5.63704e-07 2.13797e-28 7.76097e-08 3.52025e-29 1.24293e-47)
(3.04186e-06 4.17088e-07 1.85304e-25 5.72209e-08 2.57886e-26 3.78491e-43)
(3.51985e-06 4.79827e-07 2.26427e-25 6.5441e-08 3.12606e-26 3.86183e-43)
(2.49143e-06 3.40476e-07 1.37482e-25 4.65552e-08 1.92201e-26 3.81141e-43)
(3.05999e-06 4.17633e-07 7.23524e-28 5.70061e-08 1.00651e-28 5.92057e-48)
(2.05982e-06 2.82227e-07 1.0299e-25 3.86777e-08 1.45454e-26 3.93236e-43)
(2.6888e-06 3.66827e-07 1.36206e-25 5.00554e-08 1.90805e-26 3.97064e-43)
(1.73924e-06 2.38307e-07 7.79849e-26 3.26634e-08 1.13541e-26 4.04608e-43)
(2.38307e-06 3.24773e-07 0 4.42754e-08 0 0)
(1.52881e-06 2.09524e-07 6.00693e-26 2.87302e-08 9.10025e-27 4.20846e-43)
(2.11137e-06 2.87417e-07 1.21374e-25 3.9143e-08 1.8543e-26 1.72088e-42)
(1.44469e-06 1.97992e-07 4.46221e-26 2.71537e-08 7.24813e-27 4.42903e-43)
(1.83907e-06 2.49937e-07 0 3.39898e-08 0 0)
(1.5349e-06 2.10335e-07 2.40824e-26 2.88485e-08 4.77125e-27 4.71662e-43)
(1.53784e-06 2.08542e-07 -3.61501e-26 2.83106e-08 -3.1593e-27 4.90676e-43)
(1.9181e-06 2.62718e-07 0 3.60236e-08 0 0)
(1.22066e-06 1.64403e-07 -1.09175e-25 2.21997e-08 -1.19757e-26 5.41367e-43)
(2.82762e-06 3.62072e-07 0 5.16748e-08 0 0)
(1.03797e-06 -2.16504e-09 -2.10274e-25 1.87538e-07 -2.04174e-26 6.11999e-43)
(7.35716e-06 1.05281e-06 -1.98238e-27 1.53004e-07 -3.12003e-28 3.81035e-47)
(1.63789e-06 -5.06069e-08 8.80353e-25 1.82725e-07 -2.28396e-25 2.87647e-42)
(6.18796e-07 -3.30467e-07 -2.23576e-27 1.82781e-07 1.18667e-27 4.00715e-47)
(3.53692e-07 -2.03461e-07 1.20447e-25 1.25689e-07 -9.17563e-26 9.64794e-42)
(2.32643e-07 -1.38302e-07 0 9.22632e-08 0 0)
(4.74827e-07 -2.63763e-07 0 1.52354e-07 0 0)
(8.50407e-07 -4.58313e-07 0 2.49802e-07 0 0)
(1.44902e-06 -7.67848e-07 -6.30853e-25 4.08473e-07 3.43735e-25 6.85509e-42)
(2.14336e-06 -1.12094e-06 -1.94536e-28 5.87161e-07 9.8821e-29 9.87487e-50)
(2.57947e-06 -1.34047e-06 -2.57836e-27 6.97382e-07 1.35302e-27 5.99434e-48)
(2.85095e-06 -1.48341e-06 0 7.72374e-07 0 0)
(3.75724e-06 -1.95546e-06 -1.75796e-27 1.01907e-06 9.13979e-28 1.21666e-48)
(5.26607e-06 -2.73622e-06 2.03342e-27 1.42856e-06 -1.05077e-27 1.18654e-48)
(5.7471e-06 -2.94998e-06 -3.47328e-24 1.54191e-06 1.79179e-24 3.34988e-42)
(3.45577e-06 -1.74031e-06 0 9.0805e-07 0 0)
(4.96829e-06 6.62099e-07 9.96584e-25 8.99078e-08 1.40249e-25 3.92415e-43)
(7.22245e-06 8.99563e-07 4.73438e-25 1.15408e-07 6.18493e-26 9.67136e-44)
(8.88001e-06 1.11554e-06 -1.29381e-27 1.43061e-07 -3.1255e-28 1.10409e-46)
(1.00134e-05 8.71035e-07 -1.42743e-25 1.11176e-07 -1.05421e-26 2.4134e-44)
(1.47137e-05 1.71197e-06 -7.28386e-26 2.11532e-07 -8.1058e-27 7.64315e-45)
(1.40283e-05 1.67369e-06 -9.1027e-28 2.24008e-07 1.0427e-29 5.46986e-47)
(1.73642e-05 2.09652e-06 -4.72919e-28 2.91453e-07 -7.75516e-29 5.72813e-50)
(1.67576e-05 1.8731e-06 -3.03245e-25 2.49782e-07 -7.40953e-26 8.49564e-44)
(1.80848e-05 2.37264e-06 -3.93018e-25 3.34405e-07 -9.48386e-26 1.43649e-43)
(1.54112e-05 2.14641e-06 2.687e-25 3.18926e-07 8.76777e-26 2.09416e-43)
(1.46842e-05 2.09418e-06 0 3.13147e-07 0 0)
(1.28116e-05 1.84692e-06 -7.38732e-26 2.83253e-07 -1.18255e-25 1.34066e-42)
(1.20034e-05 1.70664e-06 0 2.5494e-07 0 0)
(1.09277e-05 1.55279e-06 -2.70872e-25 2.32934e-07 2.86827e-27 4.15543e-43)
(1.03769e-05 1.44747e-06 -7.23469e-28 2.10922e-07 -4.01528e-29 1.66292e-48)
(9.53883e-06 1.33146e-06 -4.80881e-25 1.93137e-07 -4.61396e-26 4.39494e-43)
(9.23051e-06 1.27066e-06 5.96407e-25 1.80875e-07 6.68781e-26 4.3698e-43)
(8.33477e-06 1.15055e-06 2.38514e-27 1.63299e-07 2.99304e-28 6.68492e-48)
(8.1551e-06 1.12725e-06 2.5587e-27 1.5882e-07 3.37723e-28 1.83139e-47)
(7.10921e-06 9.95263e-07 -2.18552e-27 1.41206e-07 -3.0077e-28 6.42674e-48)
(6.96671e-06 9.74835e-07 0 1.3774e-07 0 0)
(5.84112e-06 8.2115e-07 4.21403e-25 1.16373e-07 5.88507e-26 3.96864e-43)
(5.82539e-06 8.13528e-07 2.40589e-28 1.14388e-07 3.50507e-29 1.53732e-50)
(4.6977e-06 6.56776e-07 1.38854e-27 9.23323e-08 1.95136e-28 5.99461e-48)
(4.86058e-06 6.73888e-07 -3.55425e-25 9.38229e-08 -4.94258e-26 3.8687e-43)
(3.76105e-06 5.21504e-07 4.97558e-25 7.25102e-08 6.94854e-26 1.53679e-42)
(4.09812e-06 5.63405e-07 2.82893e-25 7.75762e-08 3.92135e-26 3.84501e-43)
(3.03561e-06 4.16297e-07 6.82511e-28 5.71227e-08 9.50488e-29 5.86832e-48)
(3.51558e-06 4.79286e-07 -1.15646e-27 6.53749e-08 -1.65815e-28 2.2932e-47)
(2.48506e-06 3.39633e-07 0 4.64485e-08 0 0)
(3.05534e-06 4.17059e-07 -1.76732e-25 5.69401e-08 -2.46727e-26 3.9371e-43)
(2.05398e-06 2.81477e-07 2.08909e-25 3.85854e-08 2.96261e-26 1.59757e-42)
(2.68383e-06 3.66174e-07 -5.52408e-28 4.99724e-08 -7.76411e-29 6.13766e-48)
(1.73459e-06 2.37675e-07 0 3.25788e-08 0 0)
(2.37822e-06 3.24107e-07 0 4.4185e-08 0 0)
(1.5264e-06 2.09209e-07 1.21148e-25 2.86901e-08 1.84578e-26 1.71083e-42)
(2.10784e-06 2.87001e-07 0 3.90968e-08 0 0)
(1.4418e-06 1.976e-07 0 2.71022e-08 0 0)
(1.83197e-06 2.48975e-07 0 3.38623e-08 0 0)
(1.53188e-06 2.09938e-07 5.30982e-26 2.87996e-08 1.04255e-26 1.93308e-42)
(1.53613e-06 2.08346e-07 -3.81523e-26 2.82921e-08 -3.34271e-27 5.10695e-43)
(1.91383e-06 2.62201e-07 5.73697e-29 3.59649e-08 -9.58783e-30 3.15859e-47)
(1.27182e-06 1.7076e-07 -1.13716e-25 2.29912e-08 -1.24971e-26 5.56192e-43)
(2.82809e-06 3.63981e-07 0 5.24661e-08 0 0)
(1.06668e-06 -1.62797e-07 -2.11495e-25 8.75846e-07 2.44168e-28 6.26368e-43)
(1.52392e-05 2.10784e-06 0 2.9393e-07 0 0)
(2.71054e-06 6.53631e-07 -7.11998e-25 6.402e-07 3.43838e-25 2.86638e-42)
(1.31515e-06 -6.5953e-07 1.12005e-24 3.3808e-07 -5.68431e-25 1.11186e-41)
(3.57316e-07 -2.07609e-07 -5.75092e-29 1.34429e-07 9.95784e-29 3.46866e-47)
(2.41034e-07 -1.41858e-07 -2.84479e-25 9.50335e-08 1.31208e-25 8.51878e-42)
(4.76886e-07 -2.64356e-07 -2.98872e-28 1.52188e-07 1.57282e-28 7.17783e-48)
(8.4824e-07 -4.56609e-07 4.05294e-28 2.48358e-07 -2.15063e-28 6.98773e-48)
(1.43998e-06 -7.62531e-07 -6.57437e-25 4.05148e-07 3.58143e-25 6.83393e-42)
(2.1345e-06 -1.11578e-06 -1.43993e-27 5.84023e-07 7.67304e-28 6.26027e-48)
(2.57883e-06 -1.33937e-06 -2.5867e-24 6.96274e-07 1.35761e-24 6.15194e-42)
(2.84446e-06 -1.47896e-06 3.32591e-24 7.69494e-07 -1.73075e-24 5.67052e-42)
(3.7384e-06 -1.94473e-06 -3.64e-27 1.0133e-06 1.89186e-27 4.90629e-48)
(5.24587e-06 -2.72525e-06 2.03408e-27 1.42301e-06 -1.05291e-27 1.15578e-48)
(5.7311e-06 -2.9421e-06 0 1.53777e-06 0 0)
(3.44329e-06 -1.73567e-06 0 9.04886e-07 0 0)
(1.11791e-05 1.09113e-06 0 1.605e-07 0 0)
(1.63023e-05 1.39451e-06 1.40162e-26 2.31662e-07 -3.28873e-28 1.27646e-46)
(1.88373e-05 2.01344e-06 -1.28933e-28 3.37614e-07 -3.04861e-29 6.58651e-51)
(2.02713e-05 1.60296e-06 -9.89782e-26 2.25964e-07 -3.14883e-26 1.44936e-44)
(2.47631e-05 2.59232e-06 0 3.86135e-07 0 0)
(2.5559e-05 2.55001e-06 1.68493e-25 3.63119e-07 6.62082e-26 3.40087e-44)
(2.82547e-05 3.26497e-06 -1.91115e-25 4.9583e-07 -7.82398e-26 3.55459e-44)
(2.71568e-05 3.07742e-06 1.73366e-25 4.60655e-07 1.00271e-25 7.46211e-44)
(2.67799e-05 3.50945e-06 2.15025e-28 5.50698e-07 1.89122e-28 3.76623e-49)
(2.45775e-05 3.364e-06 0 5.55194e-07 0 0)
(2.35881e-05 3.29673e-06 -4.50642e-26 5.36286e-07 -1.18855e-25 2.4089e-43)
(2.24332e-05 3.15059e-06 -2.05563e-25 5.20825e-07 2.17663e-25 1.17213e-42)
(2.18942e-05 3.05329e-06 -5.28463e-28 4.80299e-07 -3.26374e-28 4.85958e-48)
(2.09953e-05 2.95045e-06 -3.85721e-25 4.66804e-07 4.72349e-26 3.65563e-43)
(2.06463e-05 2.87664e-06 0 4.37868e-07 0 0)
(1.95311e-05 2.75344e-06 -5.77701e-25 4.1921e-07 -1.51682e-26 3.92956e-43)
(1.94232e-05 2.71654e-06 -7.14369e-25 4.04179e-07 -4.68918e-26 3.96161e-43)
(1.78585e-05 2.53826e-06 6.43726e-25 3.79478e-07 5.34534e-26 3.87763e-43)
(1.79605e-05 2.54408e-06 7.41581e-25 3.7485e-07 7.5541e-26 3.88718e-43)
(1.59424e-05 2.30396e-06 -1.23214e-24 3.44214e-07 -1.37483e-25 1.5149e-42)
(1.62658e-05 2.3364e-06 6.82584e-25 3.4471e-07 8.19478e-26 3.70045e-43)
(1.38998e-05 2.02999e-06 2.28513e-27 3.03674e-07 2.94395e-28 5.67518e-48)
(1.45143e-05 2.09212e-06 2.17134e-27 3.07672e-07 2.75498e-28 5.50533e-48)
(1.18886e-05 1.74102e-06 -3.44549e-27 2.59632e-07 -4.6146e-28 2.20226e-47)
(1.28666e-05 1.84872e-06 5.06228e-25 2.69681e-07 6.71198e-26 3.56273e-43)
(1.00383e-05 1.46934e-06 3.51706e-25 2.17999e-07 4.834e-26 3.57624e-43)
(1.1379e-05 1.62342e-06 -4.28545e-25 2.34107e-07 -5.77451e-26 3.57757e-43)
(8.42617e-06 1.22825e-06 -2.78445e-25 1.80763e-07 -3.92011e-26 3.58515e-43)
(1.01041e-05 1.42884e-06 -3.55996e-25 2.03569e-07 -4.81716e-26 3.60555e-43)
(7.06755e-06 1.02977e-06 -8.13517e-28 1.51177e-07 -1.16466e-28 5.55736e-48)
(9.01673e-06 1.26628e-06 -2.92877e-25 1.78912e-07 -3.96613e-26 3.66694e-43)
(5.95219e-06 8.69097e-07 -1.75438e-25 1.27692e-07 -2.57447e-26 3.62162e-43)
(8.08547e-06 1.12338e-06 -2.38059e-25 1.56841e-07 -3.20246e-26 3.81839e-43)
(5.08541e-06 7.44934e-07 -1.4647e-25 1.09671e-07 -2.22435e-26 3.75926e-43)
(7.26093e-06 9.9212e-07 -1.84027e-25 1.36097e-07 -2.4697e-26 3.95158e-43)
(4.49328e-06 6.62659e-07 -1.27621e-25 9.81344e-08 -2.02642e-26 3.97604e-43)
(6.4713e-06 8.61699e-07 -7.83172e-28 1.15148e-07 -1.02427e-28 2.75566e-47)
(4.23221e-06 6.31752e-07 -1.09759e-25 9.46596e-08 -1.86927e-26 4.05889e-43)
(5.61864e-06 7.17132e-07 -6.86684e-26 9.18914e-08 -1.04125e-26 4.38569e-43)
(4.42849e-06 6.7261e-07 0 1.02556e-07 0 0)
(4.62411e-06 5.48289e-07 0 6.54775e-08 0 0)
(5.33185e-06 8.2482e-07 2.66656e-28 1.28127e-07 8.56882e-29 3.05566e-47)
(3.57267e-06 3.62295e-07 1.63776e-27 3.80578e-08 6.38672e-29 1.2605e-46)
(7.20132e-06 1.11336e-06 1.92419e-28 1.75306e-07 2.87998e-29 4.45325e-50)
(3.05443e-06 9.3313e-08 -1.83164e-27 4.13517e-08 -1.32714e-29 3.45576e-47)
(1.03756e-05 1.40186e-06 0 2.0475e-07 0 0)
(4.32835e-06 -2.68584e-07 -1.10609e-24 9.54467e-08 2.30159e-25 2.65004e-42)
(1.17434e-06 -5.05232e-07 -5.0558e-26 2.66322e-07 3.26286e-26 2.46054e-44)
(9.45479e-07 -4.73886e-07 -9.62287e-25 2.5236e-07 3.8582e-25 8.97721e-42)
(5.0607e-07 -2.91688e-07 9.66459e-26 1.82155e-07 1.73259e-27 7.91065e-42)
(9.04365e-07 -5.31575e-07 -1.51585e-25 3.24061e-07 1.0974e-25 7.26952e-42)
(1.52648e-06 -8.93013e-07 -3.8228e-25 5.39145e-07 2.66155e-25 6.72303e-42)
(2.61066e-06 -1.49063e-06 -1.23153e-26 8.76572e-07 5.88503e-27 1.14014e-45)
(3.99964e-06 -2.17531e-06 -1.71935e-24 1.22426e-06 1.24715e-24 6.10522e-42)
(5.36821e-06 -2.83277e-06 -3.42361e-24 1.55504e-06 2.13802e-24 5.77325e-42)
(6.03073e-06 -3.23696e-06 4.60985e-27 1.81151e-06 -2.58883e-27 5.19557e-48)
(7.64097e-06 -4.20401e-06 -5.24498e-24 2.387e-06 2.86849e-24 4.98835e-42)
(9.9595e-06 -5.44541e-06 -5.18346e-24 3.0425e-06 2.75038e-24 4.34854e-42)
(1.04992e-05 -5.33451e-06 -5.45161e-26 2.77228e-06 4.87139e-26 2.82625e-44)
(8.2692e-06 -3.86454e-06 -2.23032e-24 1.88749e-06 1.15391e-24 1.82912e-42)
(1.12123e-05 1.09597e-06 -1.29537e-24 1.61416e-07 -1.71111e-25 3.75362e-43)
(1.63763e-05 1.39606e-06 1.21281e-28 2.32356e-07 1.38244e-29 3.54147e-51)
(1.88883e-05 2.01293e-06 -2.68348e-25 3.36734e-07 -7.73639e-26 5.61661e-44)
(2.03327e-05 1.60791e-06 6.95055e-26 2.26636e-07 2.93908e-26 2.39565e-44)
(2.47985e-05 2.59664e-06 9.61093e-29 3.88569e-07 3.68505e-29 9.34342e-51)
(2.56742e-05 2.56899e-06 -1.22566e-25 3.66383e-07 -3.72817e-26 1.08816e-44)
(2.82817e-05 3.26747e-06 -3.50199e-28 4.96905e-07 -1.07488e-28 5.02645e-50)
(2.71848e-05 3.08674e-06 1.90271e-25 4.62411e-07 1.02807e-25 7.48713e-44)
(2.67505e-05 3.51146e-06 0 5.52044e-07 0 0)
(2.45762e-05 3.3667e-06 -1.3701e-25 5.5617e-07 -1.33673e-25 1.83557e-43)
(2.35722e-05 3.29474e-06 3.27809e-28 5.36268e-07 2.80746e-28 1.01282e-48)
(2.24379e-05 3.15144e-06 1.95716e-27 5.20979e-07 3.38211e-28 6.00109e-48)
(2.19189e-05 3.05678e-06 3.23476e-28 4.80842e-07 -1.72497e-28 1.33362e-48)
(2.09968e-05 2.95145e-06 3.85067e-25 4.6684e-07 -4.6895e-26 3.65174e-43)
(2.06619e-05 2.87814e-06 1.82616e-27 4.37901e-07 -7.13176e-29 5.9201e-48)
(1.95234e-05 2.75193e-06 1.1546e-24 4.18745e-07 3.1307e-26 1.56561e-42)
(1.94445e-05 2.71873e-06 -7.13757e-25 4.04299e-07 -4.72758e-26 3.94159e-43)
(1.78518e-05 2.53675e-06 6.46523e-25 3.79111e-07 5.39572e-26 3.92355e-43)
(1.79818e-05 2.54676e-06 7.40243e-25 3.75119e-07 7.55879e-26 3.88376e-43)
(1.59337e-05 2.30309e-06 0 3.44136e-07 0 0)
(1.62806e-05 2.33904e-06 -6.84873e-25 3.45158e-07 -8.23053e-26 3.76113e-43)
(1.38849e-05 2.02852e-06 -5.3447e-25 3.03549e-07 -6.73224e-26 3.71105e-43)
(1.45195e-05 2.09331e-06 -2.16918e-27 3.0791e-07 -2.75085e-28 5.55978e-48)
(1.18662e-05 1.73866e-06 1.86781e-27 2.59429e-07 2.53125e-28 5.6009e-48)
(1.28566e-05 1.84712e-06 5.11374e-25 2.69422e-07 6.79381e-26 3.65106e-43)
(1.00168e-05 1.46611e-06 -3.53793e-25 2.17509e-07 -4.87339e-26 3.63864e-43)
(1.13759e-05 1.62305e-06 -4.26966e-25 2.34062e-07 -5.75354e-26 3.613e-43)
(8.40748e-06 1.22582e-06 0 1.80456e-07 0 0)
(1.0098e-05 1.42811e-06 -1.50664e-27 2.03487e-07 -2.20401e-28 5.53939e-48)
(7.0489e-06 1.02721e-06 9.27007e-28 1.5083e-07 1.33608e-28 5.60127e-48)
(9.00879e-06 1.26528e-06 -2.21112e-28 1.78789e-07 -4.27079e-29 2.61917e-49)
(5.93475e-06 8.66732e-07 -1.79757e-25 1.27375e-07 -2.63714e-26 3.76409e-43)
(8.07568e-06 1.12206e-06 -2.35136e-25 1.56661e-07 -3.17035e-26 3.82181e-43)
(5.0701e-06 7.42763e-07 -1.12903e-27 1.09368e-07 -1.71366e-28 2.39308e-47)
(7.24972e-06 9.90534e-07 -1.79784e-25 1.35871e-07 -2.42665e-26 3.90369e-43)
(4.48121e-06 6.60841e-07 -1.29565e-25 9.78746e-08 -2.0635e-26 4.05683e-43)
(6.45992e-06 8.60242e-07 -1.91197e-27 1.14963e-07 -2.5946e-28 1.01862e-46)
(4.22213e-06 6.30486e-07 -1.12786e-25 9.45421e-08 -1.89879e-26 4.15079e-43)
(5.59723e-06 7.1449e-07 6.58588e-26 9.15688e-08 1.01666e-26 4.35385e-43)
(4.41828e-06 6.71445e-07 -9.22369e-26 1.02547e-07 -1.76538e-26 4.5954e-43)
(4.59996e-06 5.46163e-07 0 6.52818e-08 0 0)
(5.31885e-06 8.24168e-07 0 1.28485e-07 0 0)
(3.61621e-06 3.62147e-07 0 3.77671e-08 0 0)
(7.14582e-06 1.10951e-06 6.35437e-28 1.77406e-07 2.38448e-29 3.5395e-47)
(3.4866e-06 -1.29794e-07 2.5501e-25 1.49412e-07 -3.32008e-27 5.97357e-43)
(1.04489e-05 1.30239e-06 -1.98169e-27 2.26847e-07 -3.23775e-28 3.78457e-47)
(4.45293e-06 -1.27866e-07 0 2.46148e-07 0 0)
(2.47997e-06 -9.61598e-07 -2.19775e-24 4.25426e-07 9.09869e-25 1.0312e-41)
(9.4487e-07 -4.73234e-07 0 2.58716e-07 0 0)
(5.24606e-07 -3.00738e-07 -4.98511e-26 1.87402e-07 -2.43034e-26 7.83933e-42)
(9.1013e-07 -5.32819e-07 6.19707e-29 3.23586e-07 -4.14792e-29 7.62222e-48)
(1.52747e-06 -8.91039e-07 3.72712e-28 5.36478e-07 -2.51493e-28 6.53181e-48)
(2.60107e-06 -1.48397e-06 7.87558e-25 8.71868e-07 -5.97448e-25 6.3489e-42)
(3.98605e-06 -2.16819e-06 -1.7493e-27 1.22015e-06 1.23743e-27 5.79917e-48)
(5.35994e-06 -2.82659e-06 3.43714e-24 1.55025e-06 -2.14218e-24 5.65883e-42)
(6.01524e-06 -3.22531e-06 -9.43012e-24 1.80337e-06 5.32391e-24 2.09275e-41)
(7.60223e-06 -4.18223e-06 2.48365e-27 2.37505e-06 -1.37057e-27 1.09165e-48)
(9.92279e-06 -5.42686e-06 -2.54509e-27 3.03345e-06 1.33667e-27 1.06147e-48)
(1.04645e-05 -5.3179e-06 0 2.76371e-06 0 0)
(8.24045e-06 -3.85289e-06 0 1.88195e-06 0 0)
(1.5002e-05 1.00916e-06 5.96653e-25 2.25747e-07 8.9085e-26 9.23719e-44)
(2.14879e-05 1.17233e-06 -3.65225e-25 3.86731e-07 -9.77903e-26 7.79789e-44)
(2.43736e-05 2.17474e-06 0 5.48676e-07 0 0)
(2.58752e-05 1.61894e-06 -6.69931e-26 3.90407e-07 -4.15897e-26 1.21338e-44)
(2.9514e-05 2.67428e-06 -4.40805e-29 5.76783e-07 1.93926e-29 3.08573e-51)
(3.06425e-05 2.69927e-06 -7.3928e-26 5.19334e-07 -8.22548e-26 3.06878e-44)
(3.21689e-05 3.5109e-06 -4.26104e-29 6.71538e-07 -6.14443e-29 1.64368e-50)
(3.11249e-05 3.50833e-06 1.0334e-25 6.54383e-07 1.23182e-25 6.57175e-44)
(3.0049e-05 3.92959e-06 1.3632e-25 7.35324e-07 1.47383e-25 1.11559e-43)
(2.86703e-05 3.89967e-06 3.89573e-28 7.59649e-07 3.85413e-28 6.97734e-49)
(2.78764e-05 3.83277e-06 1.21716e-27 7.1176e-07 -1.54859e-25 2.11446e-43)
(2.73871e-05 3.80999e-06 -1.61497e-27 7.00697e-07 -3.76751e-28 3.39151e-48)
(2.70477e-05 3.77167e-06 5.55516e-28 6.47908e-07 -9.7109e-28 1.21453e-47)
(2.64203e-05 3.7223e-06 3.55331e-25 6.38367e-07 -9.24816e-26 3.20472e-43)
(2.62823e-05 3.69467e-06 -4.97995e-25 6.04339e-07 4.80474e-26 3.38122e-43)
(2.52971e-05 3.60378e-06 5.19616e-25 5.86714e-07 -2.57933e-26 3.42435e-43)
(2.54015e-05 3.60735e-06 5.00543e-27 5.70762e-07 7.91611e-29 2.11287e-47)
(2.38093e-05 3.4422e-06 -5.85568e-25 5.44897e-07 -2.11535e-26 3.49919e-43)
(2.41779e-05 3.4946e-06 -6.76488e-25 5.42528e-07 -4.81193e-26 3.43159e-43)
(2.19454e-05 3.23497e-06 5.62787e-25 5.07495e-07 4.59745e-26 3.38814e-43)
(2.26586e-05 3.32691e-06 -1.29723e-24 5.13549e-07 -1.31032e-25 1.35507e-42)
(1.98456e-05 2.96124e-06 0 4.62811e-07 0 0)
(2.09909e-05 3.1001e-06 5.87613e-25 4.75402e-07 6.88165e-26 3.33774e-43)
(1.76509e-05 2.64648e-06 0 4.1128e-07 0 0)
(1.93321e-05 2.85162e-06 0 4.32956e-07 0 0)
(1.55013e-05 2.32807e-06 0 3.59521e-07 0 0)
(1.77473e-05 2.60252e-06 4.47663e-25 3.89962e-07 5.85648e-26 3.30586e-43)
(1.34922e-05 2.02239e-06 2.28563e-27 3.09675e-07 3.17746e-28 2.04614e-47)
(1.63067e-05 2.37071e-06 -3.86407e-25 3.50239e-07 -5.15721e-26 3.39756e-43)
(1.16821e-05 1.75148e-06 2.38584e-25 2.67134e-07 3.48592e-26 3.39986e-43)
(1.50166e-05 2.16429e-06 6.50182e-25 3.15974e-07 8.73633e-26 1.37667e-42)
(1.01101e-05 1.52001e-06 -1.45909e-27 2.31791e-07 -2.23819e-28 2.13597e-47)
(1.38589e-05 1.97024e-06 2.73008e-25 2.83024e-07 3.65069e-26 3.65097e-43)
(8.81042e-06 1.33111e-06 -1.41338e-27 2.03462e-07 -2.29725e-28 2.18004e-47)
(1.27913e-05 1.77896e-06 -9.37314e-28 2.49556e-07 -1.45099e-28 3.63028e-48)
(7.84047e-06 1.19694e-06 -1.10825e-27 1.84497e-07 -1.94505e-28 2.30761e-47)
(1.17502e-05 1.57729e-06 -3.18932e-25 2.13376e-07 -4.34741e-26 1.52415e-42)
(7.28244e-06 1.13286e-06 -1.3065e-25 1.77706e-07 -2.50126e-26 3.94047e-43)
(1.0648e-05 1.34884e-06 9.77497e-26 1.72272e-07 1.50383e-26 4.0223e-43)
(7.28475e-06 1.16465e-06 1.14362e-28 1.87711e-07 1.73629e-29 1.61852e-50)
(9.4131e-06 1.08396e-06 2.25785e-28 1.26371e-07 7.6331e-29 2.64257e-47)
(8.12199e-06 1.33382e-06 -3.56338e-28 2.21041e-07 -1.34454e-28 2.88731e-47)
(8.12629e-06 7.97589e-07 7.98424e-26 8.14424e-08 -4.80318e-27 4.78955e-43)
(1.03204e-05 1.68706e-06 0 2.82785e-07 0 0)
(7.2037e-06 4.20735e-07 0 7.2928e-08 0 0)
(1.46698e-05 2.00121e-06 0 2.95356e-07 0 0)
(8.30155e-06 -1.94951e-07 4.0607e-27 1.19132e-07 -9.26777e-28 3.54522e-47)
(1.78159e-06 -5.3149e-07 -2.6935e-24 3.14259e-07 1.1398e-24 9.64056e-42)
(1.31686e-06 -6.68457e-07 3.5956e-24 3.77016e-07 -1.43157e-24 3.33693e-41)
(8.64903e-07 -4.67307e-07 -7.42081e-25 2.8852e-07 2.5477e-25 7.35601e-42)
(1.14102e-06 -6.94674e-07 -1.90813e-26 4.57324e-07 1.12145e-26 6.24732e-45)
(1.67439e-06 -1.04937e-06 1.48252e-25 7.11247e-07 -1.80742e-25 6.18202e-42)
(2.72995e-06 -1.68249e-06 5.87141e-25 1.11533e-06 -6.04527e-25 5.88961e-42)
(4.18392e-06 -2.41861e-06 1.50539e-24 1.52774e-06 -1.38377e-24 5.59761e-42)
(6.17272e-06 -3.36654e-06 3.18146e-24 2.02507e-06 -2.31335e-24 5.26974e-42)
(7.32669e-06 -4.02972e-06 -4.59188e-27 2.45656e-06 2.73772e-27 4.78357e-48)
(9.02887e-06 -5.15651e-06 5.29089e-24 3.17329e-06 -2.91964e-24 4.57688e-42)
(1.11127e-05 -6.30847e-06 -2.81325e-26 3.7562e-06 2.07483e-26 1.02665e-44)
(1.1814e-05 -6.1585e-06 3.74421e-24 3.33981e-06 -1.81672e-24 2.78906e-42)
(1.10416e-05 -5.10479e-06 -5.41213e-26 2.48516e-06 3.301e-26 2.55719e-44)
(1.50611e-05 1.01321e-06 5.80361e-25 2.27369e-07 8.96318e-26 9.03647e-44)