# Region type : patch bottom
# Faces  :   1000
# Area   :   6.239977e-01
# Time       	sumDirection(phi)
0.0119048    	0.000000e+00
0.0132083    	2.590016e-06
0.0145102    	3.202929e-07
0.0158137    	1.111011e-07
0.017119     	7.037774e-08
0.0184243    	6.592299e-08
0.0197278    	6.185545e-08
0.0210314    	5.922748e-08
0.0223332    	5.723885e-08
0.0236333    	5.576817e-08
0.0249317    	5.463149e-08
0.0262283    	5.380352e-08
0.0275249    	5.322319e-08
0.0288198    	5.275777e-08
0.0301147    	5.238901e-08
0.0314096    	5.213991e-08
0.0327046    	5.195951e-08
0.0339995    	5.176405e-08
0.0352944    	5.165911e-08
0.0365893    	5.156317e-08
0.0378842    	5.155852e-08
0.0391773    	5.143243e-08
0.0404705    	5.139825e-08
0.0417637    	5.134661e-08
0.0430551    	5.130093e-08
0.0443465    	5.123005e-08
0.0456362    	5.121160e-08
0.0469259    	5.119589e-08
0.0482138    	5.117865e-08
0.0495       	5.116895e-08
0.0507845    	5.114291e-08
0.0520689    	5.115130e-08
0.0533517    	5.113976e-08
0.0546327    	5.114812e-08
0.0559136    	5.115641e-08
0.0571929    	5.115877e-08
0.0584721    	5.115376e-08
0.0597497    	5.116393e-08
0.0610272    	5.117110e-08
0.0623029    	5.118384e-08
0.0635787    	5.121338e-08
0.0648545    	5.124357e-08
0.0661285    	5.126904e-08
0.0674026    	5.131286e-08
0.0686749    	5.134437e-08
0.0699472    	5.136134e-08
0.0712177    	5.137778e-08
0.0724866    	5.141384e-08
0.0737537    	5.144476e-08
0.0750208    	5.147479e-08
0.0762861    	5.150227e-08
0.0775498    	5.152474e-08
0.0788117    	5.155675e-08
0.0800718    	5.161609e-08
0.0813303    	5.158665e-08
0.082587     	5.152756e-08
0.083842     	5.155567e-08
0.0850953    	5.159603e-08
0.0863469    	5.162312e-08
0.0875968    	5.164962e-08
0.0888449    	5.167225e-08
0.0900914    	5.171121e-08
0.0913361    	5.174793e-08
0.0925792    	5.178037e-08
0.0938205    	5.182159e-08
0.0950602    	5.187355e-08
0.0962981    	5.192223e-08
0.097536     	5.197118e-08
0.0987723    	5.203775e-08
0.100007     	5.212681e-08
0.10124      	5.220122e-08
0.102471     	5.233808e-08
0.1037       	5.244808e-08
0.104927     	5.257989e-08
0.106151     	5.269121e-08
0.107374     	5.281272e-08
0.108595     	5.294607e-08
0.109814     	5.307004e-08
0.11103      	5.320832e-08
0.112245     	5.335203e-08
0.113458     	5.348701e-08
0.114669     	5.362798e-08
0.115878     	5.377355e-08
0.117086     	5.392081e-08
0.118292     	5.408376e-08
0.119497     	5.424647e-08
0.1207       	5.439930e-08
0.121901     	5.454274e-08
0.1231       	5.468981e-08
0.124298     	5.481925e-08
0.125495     	5.494160e-08
0.126689     	5.506622e-08
0.127882     	5.518831e-08
0.129074     	5.530220e-08
0.130264     	5.541084e-08
0.131452     	5.551540e-08
0.132638     	5.564180e-08
0.133823     	5.578700e-08
0.135007     	5.589787e-08
0.136187     	5.602190e-08
0.137365     	5.616462e-08
0.138542     	5.635782e-08
0.139717     	5.657271e-08
0.140891     	5.683079e-08
0.142063     	5.712388e-08
0.143233     	5.740933e-08
0.144402     	5.772603e-08
0.145571     	5.802324e-08
0.146738     	5.830869e-08
0.147904     	5.859854e-08
0.149068     	5.888527e-08
0.150232     	5.916590e-08
0.151395     	5.944081e-08
0.152555     	5.970579e-08
0.153716     	5.997881e-08
0.154876     	6.023081e-08
0.156035     	6.047952e-08
0.157193     	6.071287e-08
0.15835      	6.093033e-08
0.159506     	6.116198e-08
0.160662     	6.140592e-08
0.161817     	6.162925e-08
0.162972     	6.183893e-08
0.164124     	6.208112e-08
0.165277     	6.231398e-08
0.166429     	6.252379e-08
0.16758      	6.272263e-08
0.16873      	6.293093e-08
0.169878     	6.312647e-08
0.171026     	6.331372e-08
0.172173     	6.349208e-08
0.173319     	6.366680e-08
0.174464     	6.383683e-08
0.175609     	6.399680e-08
0.176753     	6.414099e-08
0.177896     	6.427896e-08
0.179038     	6.440329e-08
0.18018      	6.453215e-08
0.18132      	6.464441e-08
0.18246      	6.475728e-08
0.1836       	6.487736e-08
0.184739     	6.499080e-08
0.185878     	6.509841e-08
0.187016     	6.520108e-08
0.188153     	6.530135e-08
0.18929      	6.536249e-08
0.190427     	6.543356e-08
0.191564     	6.548786e-08
0.192701     	6.552626e-08
0.193837     	6.555175e-08
0.194972     	6.560321e-08
0.196108     	6.566930e-08
0.197243     	6.567295e-08
0.198377     	6.568156e-08
0.199511     	6.569827e-08
0.200645     	6.571983e-08
0.201779     	6.577812e-08
0.202912     	6.582362e-08
0.204045     	6.585391e-08
0.205175     	6.587408e-08
0.206304     	6.594786e-08
0.207433     	6.599993e-08
0.208561     	6.603732e-08
0.209687     	6.606730e-08
0.210811     	6.608996e-08
0.211935     	6.610480e-08
0.213058     	6.615636e-08
0.214179     	6.619093e-08
0.2153       	6.621275e-08
0.216419     	6.622084e-08
0.217538     	6.630171e-08
0.218656     	6.636710e-08
0.219772     	6.642966e-08
0.220889     	6.650961e-08
0.222003     	6.655690e-08
0.223116     	6.662329e-08
0.224228     	6.666026e-08
0.225337     	6.670660e-08
0.226446     	6.678741e-08
0.227552     	6.687256e-08
0.228657     	6.693504e-08
0.229761     	6.700627e-08
0.230864     	6.707329e-08
0.231966     	6.711953e-08
0.233068     	6.720624e-08
0.234169     	6.733544e-08
0.235267     	6.733981e-08
0.236364     	6.720479e-08
0.237458     	6.702979e-08
0.238551     	6.700760e-08
0.239642     	6.698649e-08
0.240731     	6.699249e-08
0.241821     	6.703470e-08
0.242908     	6.708313e-08
0.243995     	6.709041e-08
0.245081     	6.711812e-08
0.246165     	6.714679e-08
0.24725      	6.718515e-08
0.248335     	6.718427e-08
0.249419     	6.720850e-08
0.250502     	6.721819e-08
0.251584     	6.725395e-08
0.252664     	6.733351e-08
0.253744     	6.741833e-08
0.254822     	6.755651e-08
0.255901     	6.772983e-08
0.256979     	6.800390e-08
0.258058     	6.821388e-08
0.259136     	6.831947e-08
0.260211     	6.840830e-08
0.261285     	6.859732e-08
0.262352     	6.867229e-08
0.263414     	6.878284e-08
0.264469     	6.884108e-08
0.265518     	6.899537e-08
0.266562     	6.921999e-08
0.267599     	6.946486e-08
0.268631     	6.965990e-08
0.269658     	6.988011e-08
0.270679     	7.006588e-08
0.271695     	7.023534e-08
0.272707     	7.041212e-08
0.273714     	7.062341e-08
0.274716     	7.082393e-08
0.275713     	7.103374e-08
0.276707     	7.117755e-08
0.277696     	7.132792e-08
0.278683     	7.148576e-08
0.279666     	7.162212e-08
0.280644     	7.175879e-08
0.281621     	7.190103e-08
0.282594     	7.201513e-08
0.283565     	7.214022e-08
0.284533     	7.228658e-08
0.285498     	7.250840e-08
0.286463     	7.268524e-08
0.287424     	7.290185e-08
0.288385     	7.306037e-08
0.289344     	7.325812e-08
0.290301     	7.343224e-08
0.291258     	7.360681e-08
0.292214     	7.370877e-08
0.29317      	7.378495e-08
0.294125     	7.393910e-08
0.295079     	7.409623e-08
0.29603      	7.417133e-08
0.296979     	7.430622e-08
0.297926     	7.441776e-08
0.298872     	7.453896e-08
0.299816     	7.463553e-08
0.300758     	7.464824e-08
0.301701     	7.466618e-08
0.302642     	7.470036e-08
0.303582     	7.481355e-08
0.304522     	7.484706e-08
0.305461     	7.487823e-08
0.3064       	7.487940e-08
0.307338     	7.486695e-08
0.308278     	7.497765e-08
0.309218     	7.509868e-08
0.310158     	7.523394e-08
0.311099     	7.535684e-08
0.312042     	7.541324e-08
0.312983     	7.544695e-08
0.313922     	7.546450e-08
0.314862     	7.555159e-08
0.315802     	7.556860e-08
0.316742     	7.545411e-08
0.317682     	7.548091e-08
0.318622     	7.558786e-08
0.319561     	7.570267e-08
0.320503     	7.577378e-08
0.321444     	7.583854e-08
0.322386     	7.583264e-08
0.323329     	7.582995e-08
0.32427      	7.578278e-08
0.325212     	7.574080e-08
0.326155     	7.571263e-08
0.327097     	7.566272e-08
0.328039     	7.561648e-08
0.328983     	7.555014e-08
0.329927     	7.546678e-08
0.330872     	7.536284e-08
0.331819     	7.529996e-08
0.332766     	7.521073e-08
0.333715     	7.514888e-08
0.334665     	7.505649e-08
0.335614     	7.492126e-08
0.336563     	7.479287e-08
0.337512     	7.469363e-08
0.338461     	7.456656e-08
0.339412     	7.445919e-08
0.340362     	7.432746e-08
0.341314     	7.427864e-08
0.342266     	7.421978e-08
0.343219     	7.421442e-08
0.344174     	7.422450e-08
0.34513      	7.414939e-08
0.346087     	7.393292e-08
0.347046     	7.383799e-08
0.348005     	7.369242e-08
0.348965     	7.355022e-08
0.349925     	7.342607e-08
0.350887     	7.329058e-08
0.35185      	7.318138e-08
0.352813     	7.310320e-08
0.353777     	7.296155e-08
0.354743     	7.280123e-08
0.355711     	7.264946e-08
0.35668      	7.251805e-08
0.35765      	7.237604e-08
0.358622     	7.225050e-08
0.359594     	7.209204e-08
0.360567     	7.200537e-08
0.36154      	7.185045e-08
0.362513     	7.170106e-08
0.363488     	7.151797e-08
0.364463     	7.142876e-08
0.365439     	7.130386e-08
0.366415     	7.116450e-08
0.367393     	7.106436e-08
0.368371     	7.097638e-08
0.36935      	7.091302e-08
0.370329     	7.081056e-08
0.37131      	7.071698e-08
0.372291     	7.058695e-08
0.373273     	7.046860e-08
0.374257     	7.037727e-08
0.375243     	7.029794e-08
0.376228     	7.023504e-08
0.377213     	7.012514e-08
0.378199     	7.002162e-08
0.379186     	6.993934e-08
0.380173     	6.986346e-08
0.38116      	6.976352e-08
0.382148     	6.971279e-08
0.383137     	6.962152e-08
0.384127     	6.954206e-08
0.385117     	6.945201e-08
0.386109     	6.934161e-08
0.387102     	6.926116e-08
0.388097     	6.908389e-08
0.389092     	6.894864e-08
0.390089     	6.885500e-08
0.391085     	6.875476e-08
0.392082     	6.865802e-08
0.393079     	6.856122e-08
0.394077     	6.850580e-08
0.395075     	6.848120e-08
0.396073     	6.846656e-08
0.397073     	6.845639e-08
0.398073     	6.845708e-08
0.399075     	6.844894e-08
0.400076     	6.848434e-08
0.401078     	6.849816e-08
0.402081     	6.854168e-08
0.403084     	6.859761e-08
0.404087     	6.864538e-08
0.405091     	6.870614e-08
0.406095     	6.871359e-08
0.4071       	6.871728e-08
0.408107     	6.870053e-08
0.409114     	6.869335e-08
0.410122     	6.864673e-08
0.41113      	6.862358e-08
0.41214      	6.863546e-08
0.413152     	6.865000e-08
0.414166     	6.859712e-08
0.415178     	6.856136e-08
0.416188     	6.852634e-08
0.417196     	6.846587e-08
0.418202     	6.843169e-08
0.419207     	6.842799e-08
0.42021      	6.835781e-08
0.421214     	6.831147e-08
0.422215     	6.827408e-08
0.423214     	6.826908e-08
0.424214     	6.825903e-08
0.425212     	6.829087e-08
0.42621      	6.830611e-08
0.427208     	6.831708e-08
0.428204     	6.828182e-08
0.4292       	6.822548e-08
0.430196     	6.828793e-08
0.431192     	6.830172e-08
0.432189     	6.831092e-08
0.433185     	6.831408e-08
0.434181     	6.831332e-08
0.435177     	6.830244e-08
0.436173     	6.827772e-08
0.437171     	6.823981e-08
0.438169     	6.820540e-08
0.439167     	6.823532e-08
0.440167     	6.823130e-08
0.441166     	6.823251e-08
0.442166     	6.819170e-08
0.443168     	6.818502e-08
0.444169     	6.815785e-08
0.445172     	6.812774e-08
0.446176     	6.814025e-08
0.447181     	6.813011e-08
0.448186     	6.811259e-08
0.449191     	6.810264e-08
0.450198     	6.805714e-08
0.451205     	6.800626e-08
0.452212     	6.798568e-08
0.453221     	6.798713e-08
0.45423      	6.795133e-08
0.455238     	6.791092e-08
0.456249     	6.787298e-08
0.45726      	6.784770e-08
0.458272     	6.783407e-08
0.459285     	6.777349e-08
0.460299     	6.773542e-08
0.461316     	6.768054e-08
0.462332     	6.759569e-08
0.463351     	6.754217e-08
0.464371     	6.745330e-08
0.465391     	6.735823e-08
0.466413     	6.730260e-08
0.467437     	6.726240e-08
0.468464     	6.722240e-08
0.46949      	6.718725e-08
0.470518     	6.715984e-08
0.471546     	6.710461e-08
0.472576     	6.706450e-08
0.473606     	6.701586e-08
0.474636     	6.695838e-08
0.475668     	6.687233e-08
0.476701     	6.681043e-08
0.477733     	6.678618e-08
0.478765     	6.674471e-08
0.479799     	6.670767e-08
0.480833     	6.667309e-08
0.481867     	6.666841e-08
0.482904     	6.663893e-08
0.48394      	6.661024e-08
0.484978     	6.655027e-08
0.486017     	6.651083e-08
0.487057     	6.647404e-08
0.488098     	6.643633e-08
0.48914      	6.642750e-08
0.490183     	6.642221e-08
0.491227     	6.640818e-08
0.492274     	6.636855e-08
0.493321     	6.631224e-08
0.49437      	6.625528e-08
0.495421     	6.620795e-08
0.496473     	6.613138e-08
0.497526     	6.610239e-08
0.498579     	6.601391e-08
0.499635     	6.595729e-08
0.500691     	6.590817e-08
0.501748     	6.587535e-08
0.502806     	6.582880e-08
0.503864     	6.577901e-08
0.504922     	6.575059e-08
0.505982     	6.573050e-08
0.507042     	6.572470e-08
0.508102     	6.565355e-08
0.509163     	6.558142e-08
0.510225     	6.555010e-08
0.511287     	6.553565e-08
0.512352     	6.551094e-08
0.513417     	6.548470e-08
0.514482     	6.545159e-08
0.515549     	6.542041e-08
0.516616     	6.540767e-08
0.517685     	6.539743e-08
0.518755     	6.539800e-08
0.519826     	6.541582e-08
0.520898     	6.547303e-08
0.521972     	6.546966e-08
0.523047     	6.548090e-08
0.524123     	6.549928e-08
0.5252       	6.543774e-08
0.526279     	6.537105e-08
0.527358     	6.533672e-08
0.52844      	6.527494e-08
0.529521     	6.528840e-08
0.530605     	6.531882e-08
0.531689     	6.528737e-08
0.532773     	6.528535e-08
0.53386      	6.530168e-08
0.534947     	6.529586e-08
0.536033     	6.529883e-08
0.53712      	6.529417e-08
0.538206     	6.528940e-08
0.539295     	6.528965e-08
0.540385     	6.531222e-08
0.541474     	6.534549e-08
0.542565     	6.534413e-08
0.543657     	6.532499e-08
0.544749     	6.528515e-08
0.545843     	6.520943e-08
0.546938     	6.522265e-08
0.548032     	6.521208e-08
0.549129     	6.524167e-08
0.550226     	6.524820e-08
0.551326     	6.526640e-08
0.552425     	6.524267e-08
0.553522     	6.523841e-08
0.554617     	6.529085e-08
0.555711     	6.532808e-08
0.556803     	6.540661e-08
0.557892     	6.545145e-08
0.55898      	6.553224e-08
0.560067     	6.561535e-08
0.56115      	6.576320e-08
0.562234     	6.581216e-08
0.563315     	6.577914e-08
0.564396     	6.581441e-08
0.565474     	6.575826e-08
0.566552     	6.573433e-08
0.567628     	6.579146e-08
0.568701     	6.581684e-08
0.569773     	6.586453e-08
0.570844     	6.588630e-08
0.571914     	6.592367e-08
0.572981     	6.590219e-08
0.574049     	6.589866e-08
0.575114     	6.590279e-08
0.576179     	6.597678e-08
0.577244     	6.603031e-08
0.578306     	6.608962e-08
0.579368     	6.609211e-08
0.58043      	6.609345e-08
0.581492     	6.608029e-08
0.582555     	6.605415e-08
0.583617     	6.606187e-08
0.584679     	6.606770e-08
0.585741     	6.606648e-08
0.586801     	6.603769e-08
0.58786      	6.599999e-08
0.58892      	6.597393e-08
0.589979     	6.596905e-08
0.591039     	6.594640e-08
0.592095     	6.592201e-08
0.593152     	6.589002e-08
0.594209     	6.587790e-08
0.595266     	6.586188e-08
0.59632      	6.583180e-08
0.597374     	6.582327e-08
0.598428     	6.581538e-08
0.599482     	6.580875e-08
0.600533     	6.581481e-08
0.601584     	6.583298e-08
0.602633     	6.586865e-08
0.603681     	6.587522e-08
0.604729     	6.589087e-08
0.605778     	6.589112e-08
0.606826     	6.590766e-08
0.607875     	6.593417e-08
0.608923     	6.595591e-08
0.609972     	6.599387e-08
0.611017     	6.603150e-08
0.612063     	6.603463e-08
0.613109     	6.600718e-08
0.614154     	6.602140e-08
0.6152       	6.606940e-08
0.616243     	6.608436e-08
0.617286     	6.610722e-08
0.618329     	6.612804e-08
0.619371     	6.615063e-08
0.620414     	6.614446e-08
0.621454     	6.613316e-08
0.622494     	6.614268e-08
0.623531     	6.619364e-08
0.624568     	6.621746e-08
0.625605     	6.622917e-08
0.62664      	6.623420e-08
0.627674     	6.626589e-08
0.628708     	6.627844e-08
0.629742     	6.628453e-08
0.630777     	6.626444e-08
0.631811     	6.624640e-08
0.632845     	6.623396e-08
0.633876     	6.623698e-08
0.634908     	6.624945e-08
0.635939     	6.627694e-08
0.63697      	6.625940e-08
0.638002     	6.626681e-08
0.639033     	6.624592e-08
0.640064     	6.622080e-08
0.641093     	6.623468e-08
0.642121     	6.620350e-08
0.643147     	6.617798e-08
0.644172     	6.620426e-08
0.645198     	6.618111e-08
0.64622      	6.616782e-08
0.647242     	6.617077e-08
0.648262     	6.617179e-08
0.649282     	6.626217e-08
0.650298     	6.626287e-08
0.651315     	6.624394e-08
0.652331     	6.631076e-08
0.653345     	6.653180e-08
0.654358     	6.702826e-08
0.655372     	6.789822e-08
0.656386     	6.942435e-08
0.657399     	7.165843e-08
0.658413     	7.393914e-08
0.659427     	7.476934e-08
0.66044      	7.373175e-08
0.661451     	7.324768e-08
0.662461     	7.336980e-08
0.663472     	7.355271e-08
0.664483     	7.342182e-08
0.665493     	7.276886e-08
0.666504     	7.225875e-08
0.667514     	7.134768e-08
0.668528     	7.056572e-08
0.669539     	6.993428e-08
0.670549     	6.942732e-08
0.67156      	6.902057e-08
0.67257      	6.873750e-08
0.673578     	6.855052e-08
0.674585     	6.843742e-08
0.675596     	6.835888e-08
0.676606     	6.829416e-08
0.677617     	6.824051e-08
0.678628     	6.817797e-08
0.679638     	6.815111e-08
0.680649     	6.815410e-08
0.68166      	6.812919e-08
0.68267      	6.812386e-08
0.683678     	6.814644e-08
0.684685     	6.818628e-08
0.685689     	6.821718e-08
0.686693     	6.826219e-08
0.687697     	6.828314e-08
0.688698     	6.825261e-08
0.689699     	6.824554e-08
0.6907       	6.823547e-08
0.691701     	6.822713e-08
0.692702     	6.821908e-08
0.693703     	6.822289e-08
0.694704     	6.796466e-08
0.695702     	6.754795e-08
0.6967       	6.720146e-08
0.697697     	6.692235e-08
0.698695     	6.674919e-08
0.699693     	6.659802e-08
0.70069      	6.665713e-08
0.701688     	6.678230e-08
0.702686     	6.671352e-08
0.703684     	6.630827e-08
0.704681     	6.596615e-08
0.705679     	6.572852e-08
0.706677     	6.560838e-08
0.707671     	6.550889e-08
0.708665     	6.544573e-08
0.70966      	6.535693e-08
0.710657     	6.529786e-08
0.711652     	6.520692e-08
0.712646     	6.515058e-08
0.71364      	6.507443e-08
0.714635     	6.501352e-08
0.715629     	6.497824e-08
0.716623     	6.496455e-08
0.717617     	6.496144e-08
0.718612     	6.495320e-08
0.719606     	6.494686e-08
0.7206       	6.486305e-08
0.721595     	6.476936e-08
0.722589     	6.471991e-08
0.723583     	6.455939e-08
0.724578     	6.453445e-08
0.725572     	6.457854e-08
0.726566     	6.438442e-08
0.727561     	6.424682e-08
0.728555     	6.425283e-08
0.729549     	6.435902e-08
0.730543     	6.449169e-08
0.731538     	6.437367e-08
0.732532     	6.399378e-08
0.733526     	6.369296e-08
0.734521     	6.353035e-08
0.735515     	6.340336e-08
0.736509     	6.325956e-08
0.737504     	6.311336e-08
0.738502     	6.302119e-08
0.7395       	6.295886e-08
0.740498     	6.298122e-08
0.741492     	6.296097e-08
0.742486     	6.295247e-08
0.743484     	6.297154e-08
0.744483     	6.292629e-08
0.745481     	6.281184e-08
0.746479     	6.272199e-08
0.747477     	6.258168e-08
0.748479     	6.246384e-08
0.749481     	6.241381e-08
0.750483     	6.233132e-08
0.751485     	6.227866e-08
0.752487     	6.228673e-08
0.753489     	6.222706e-08
0.754491     	6.219145e-08
0.755498     	6.216659e-08
0.756504     	6.210954e-08
0.75751      	6.205172e-08
0.758516     	6.200773e-08
0.759522     	6.195495e-08
0.760529     	6.187820e-08
0.761535     	6.180154e-08
0.762541     	6.175123e-08
0.763547     	6.166838e-08
0.764558     	6.160985e-08
0.765568     	6.154063e-08
0.766579     	6.145215e-08
0.767593     	6.137482e-08
0.768608     	6.127498e-08
0.769628     	6.121308e-08
0.770652     	6.109138e-08
0.771675     	6.102219e-08
0.772704     	6.097272e-08
0.773737     	6.093698e-08
0.77477      	6.086792e-08
0.775808     	6.078492e-08
0.776851     	6.067438e-08
0.777899     	6.054941e-08
0.778946     	6.046967e-08
0.779999     	6.036316e-08
0.781057     	6.024620e-08
0.782119     	6.019532e-08
0.783182     	6.012569e-08
0.78425      	5.999693e-08
0.785324     	5.991577e-08
0.786397     	5.981166e-08
0.787476     	5.972226e-08
0.78856      	5.962502e-08
0.78965      	5.950138e-08
0.79074      	5.946961e-08
0.791836     	5.941243e-08
0.792937     	5.933853e-08
0.794038     	5.927350e-08
0.79514      	5.921568e-08
0.796241     	5.921892e-08
0.797348     	5.921456e-08
0.798456     	5.908771e-08
0.799563     	5.892102e-08
0.800671     	5.881721e-08
0.801784     	5.875466e-08
0.802898     	5.870998e-08
0.804011     	5.862360e-08
0.805131     	5.855219e-08
0.806251     	5.849107e-08
0.807371     	5.840565e-08
0.808498     	5.833319e-08
0.809624     	5.827896e-08
0.810751     	5.820798e-08
0.811884     	5.815612e-08
0.813017     	5.810183e-08
0.81415      	5.806487e-08
0.815284     	5.804049e-08
0.816424     	5.804213e-08
0.817564     	5.801268e-08
0.818704     	5.803339e-08
0.819844     	5.805071e-08
0.820992     	5.807988e-08
0.822139     	5.811973e-08
0.823287     	5.810660e-08
0.824434     	5.790594e-08
0.825589     	5.778138e-08
0.826744     	5.769523e-08
0.8279       	5.760590e-08
0.829047     	5.756242e-08
0.830194     	5.746523e-08
0.831342     	5.738715e-08
0.832489     	5.734589e-08
0.833636     	5.732884e-08
0.834784     	5.735692e-08
0.835923     	5.735191e-08
0.837062     	5.735245e-08
0.838202     	5.731226e-08
0.839341     	5.724292e-08
0.840481     	5.719592e-08
0.84162      	5.716493e-08
0.842759     	5.710605e-08
0.843899     	5.705761e-08
0.845038     	5.700369e-08
0.846178     	5.699931e-08
0.847317     	5.696427e-08
0.848457     	5.692519e-08
0.849605     	5.687712e-08
0.850753     	5.686318e-08
0.851901     	5.684489e-08
0.853049     	5.678943e-08
0.854197     	5.678834e-08
0.855345     	5.681311e-08
0.856493     	5.684851e-08
0.857641     	5.683842e-08
0.858789     	5.680537e-08
0.859937     	5.680765e-08
0.861085     	5.681611e-08
0.862233     	5.683589e-08
0.863391     	5.673616e-08
0.864549     	5.668944e-08
0.865706     	5.668512e-08
0.866864     	5.670884e-08
0.868022     	5.669165e-08
0.86918      	5.664846e-08
0.870337     	5.664938e-08
0.871495     	5.660814e-08
0.872653     	5.657322e-08
0.87381      	5.656850e-08
0.874979     	5.653268e-08
0.876147     	5.647874e-08
0.877316     	5.645407e-08
0.878484     	5.642357e-08
0.879652     	5.639809e-08
0.880821     	5.636532e-08
0.881989     	5.634450e-08
0.883158     	5.630357e-08
0.884326     	5.626777e-08
0.885495     	5.622635e-08
0.886675     	5.617456e-08
0.887855     	5.607940e-08
0.889036     	5.603766e-08
0.890216     	5.600250e-08
0.891397     	5.598083e-08
0.892577     	5.596211e-08
0.893758     	5.596096e-08
0.894938     	5.595964e-08
0.896119     	5.594077e-08
0.897299     	5.591984e-08
0.89848      	5.592184e-08
0.89966      	5.591045e-08
0.900841     	5.592738e-08
0.902021     	5.591836e-08
0.903202     	5.591402e-08
0.904382     	5.592274e-08
0.905563     	5.590874e-08
0.906743     	5.589133e-08
0.907939     	5.587296e-08
0.909134     	5.584411e-08
0.91033      	5.585853e-08
0.911525     	5.585930e-08
0.912721     	5.583283e-08
0.913917     	5.583920e-08
0.915112     	5.584187e-08
0.916308     	5.583364e-08
0.917503     	5.577932e-08
0.918699     	5.570294e-08
0.919895     	5.575284e-08
0.92109      	5.585797e-08
0.922286     	5.586164e-08
0.923481     	5.577375e-08
0.924677     	5.576567e-08
0.925873     	5.578844e-08
0.927068     	5.578664e-08
0.928264     	5.580275e-08
0.929459     	5.579976e-08
0.930655     	5.578492e-08
0.931851     	5.575491e-08
0.933046     	5.572214e-08
0.934242     	5.573179e-08
0.935437     	5.575744e-08
0.936633     	5.576222e-08
0.937829     	5.577714e-08
0.939024     	5.579554e-08
0.94022      	5.580673e-08
0.941415     	5.583620e-08
0.942611     	5.588956e-08
0.943807     	5.589583e-08
0.945002     	5.590392e-08
0.946198     	5.593041e-08
0.947393     	5.597659e-08
0.948589     	5.598245e-08
0.949785     	5.600320e-08
0.95098      	5.602433e-08
0.952176     	5.604645e-08
0.953371     	5.605602e-08
0.954567     	5.608621e-08
0.955763     	5.608315e-08
0.956958     	5.608490e-08
0.958154     	5.606577e-08
0.95935      	5.607386e-08
0.960545     	5.608081e-08
0.961741     	5.608303e-08
0.962936     	5.608072e-08
0.964132     	5.609254e-08
0.965328     	5.610315e-08
0.966523     	5.611977e-08
0.967719     	5.612452e-08
0.968914     	5.613076e-08
0.97011      	5.614213e-08
0.971306     	5.614852e-08
0.972501     	5.615126e-08
0.973697     	5.616893e-08
0.974892     	5.620725e-08
0.976088     	5.623921e-08
0.977284     	5.628603e-08
0.978479     	5.635216e-08
0.979675     	5.640504e-08
0.98087      	5.646639e-08
0.982066     	5.651027e-08
0.983262     	5.660388e-08
0.984457     	5.673882e-08
0.985653     	5.688802e-08
0.986848     	5.706132e-08
0.988044     	5.710346e-08
0.98924      	5.707051e-08
0.990435     	5.701511e-08
0.991631     	5.701326e-08
0.992826     	5.700295e-08
0.994022     	5.696723e-08
0.995218     	5.695652e-08
0.996413     	5.694419e-08
0.997609     	5.695133e-08
0.998804     	5.697949e-08
1            	5.700178e-08
1.00121      	5.701334e-08
1.00241      	5.702056e-08
1.00361      	5.702433e-08
1.00482      	5.702717e-08
1.00602      	5.703758e-08
1.00722      	5.706526e-08
1.00841      	5.709704e-08
1.00961      	5.712850e-08
1.0108       	5.714909e-08
1.012        	5.715962e-08
1.01319      	5.717872e-08
1.01438      	5.720381e-08
1.01557      	5.722786e-08
1.01676      	5.726430e-08
1.01794      	5.729026e-08
1.01913      	5.731155e-08
1.02031      	5.733267e-08
1.02149      	5.736760e-08
1.02267      	5.737924e-08
1.02384      	5.739033e-08
1.02502      	5.740424e-08
1.02619      	5.738970e-08
1.02736      	5.739465e-08
1.02853      	5.740569e-08
1.02969      	5.740884e-08
1.03086      	5.744750e-08
1.03202      	5.744985e-08
1.03318      	5.746463e-08
1.03434      	5.747157e-08
1.0355       	5.748699e-08
1.03665      	5.752034e-08
1.0378       	5.755598e-08
1.03895      	5.758665e-08
1.0401       	5.762077e-08
1.04124      	5.766665e-08
1.04238      	5.771163e-08
1.04352      	5.774171e-08
1.04466      	5.779379e-08
1.0458       	5.780734e-08
1.04693      	5.778814e-08
1.04806      	5.780638e-08
1.04919      	5.784166e-08
1.05032      	5.788563e-08
1.05144      	5.793473e-08
1.05257      	5.799222e-08
1.05369      	5.805703e-08
1.05481      	5.810802e-08
1.05592      	5.812584e-08
1.05704      	5.816438e-08
1.05815      	5.821931e-08
1.05926      	5.827190e-08
1.06037      	5.830347e-08
1.06148      	5.833678e-08
1.06258      	5.838897e-08
1.06368      	5.842614e-08
1.06478      	5.842432e-08
1.06588      	5.844704e-08
1.06698      	5.846882e-08
1.06807      	5.851386e-08
1.06916      	5.857147e-08
1.07026      	5.861660e-08
1.07135      	5.866538e-08
1.07243      	5.869876e-08
1.07352      	5.873525e-08
1.07461      	5.877473e-08
1.07569      	5.882224e-08
1.07678      	5.886917e-08
1.07786      	5.892481e-08
1.07894      	5.900326e-08
1.08002      	5.907006e-08
1.0811       	5.914615e-08
1.08218      	5.920094e-08
1.08325      	5.926346e-08
1.08433      	5.929898e-08
1.0854       	5.936356e-08
1.08647      	5.945895e-08
1.08755      	5.950652e-08
1.08862      	5.955094e-08
1.08969      	5.960148e-08
1.09075      	5.965481e-08
1.09182      	5.971773e-08
1.09289      	5.980130e-08
1.09396      	5.988950e-08
1.09502      	5.996287e-08
1.09609      	6.004083e-08
1.09715      	6.011563e-08
1.09822      	6.018806e-08
1.09928      	6.025807e-08
1.10034      	6.033017e-08
1.1014       	6.040661e-08
1.10246      	6.048332e-08
1.10351      	6.055396e-08
1.10457      	6.064424e-08
1.10562      	6.074364e-08
1.10668      	6.084698e-08
1.10773      	6.089651e-08
1.10879      	6.097750e-08
1.10984      	6.105779e-08
1.11089      	6.111568e-08
1.11194      	6.118718e-08
1.11299      	6.127312e-08
1.11404      	6.133357e-08
1.11509      	6.139585e-08
1.11614      	6.145265e-08
1.11718      	6.152380e-08
1.11823      	6.159125e-08
1.11928      	6.166510e-08
1.12033      	6.173255e-08
1.12137      	6.177687e-08
1.12242      	6.181443e-08
1.12346      	6.186055e-08
1.12451      	6.191433e-08
1.12555      	6.196261e-08
1.12659      	6.201347e-08
1.12763      	6.205526e-08
1.12868      	6.205560e-08
1.12972      	6.208175e-08
1.13076      	6.210949e-08
1.1318       	6.214738e-08
1.13284      	6.216853e-08
1.13388      	6.219469e-08
1.13492      	6.223057e-08
1.13595      	6.230011e-08
1.13699      	6.236016e-08
1.13803      	6.238627e-08
1.13906      	6.243714e-08
1.1401       	6.248191e-08
1.14113      	6.250405e-08
1.14216      	6.254685e-08
1.1432       	6.258963e-08
1.14423      	6.262919e-08
1.14526      	6.266714e-08
1.14629      	6.272253e-08
1.14731      	6.274472e-08
1.14834      	6.278274e-08
1.14937      	6.280364e-08
1.1504       	6.284250e-08
1.15143      	6.286827e-08
1.15246      	6.291066e-08
1.15349      	6.294114e-08
1.15451      	6.297945e-08
1.15554      	6.302704e-08
1.15656      	6.305985e-08
1.15759      	6.307668e-08
1.15862      	6.310224e-08
1.15964      	6.313060e-08
1.16067      	6.316624e-08
1.1617       	6.320536e-08
1.16273      	6.322698e-08
1.16375      	6.326811e-08
1.16478      	6.330318e-08
1.16581      	6.330950e-08
1.16683      	6.332052e-08
1.16786      	6.337194e-08
1.16889      	6.340656e-08
1.16991      	6.344157e-08
1.17094      	6.346124e-08
1.17197      	6.348471e-08
1.173        	6.349506e-08
1.17402      	6.351512e-08
1.17505      	6.352506e-08
1.17608      	6.353286e-08
1.1771       	6.355404e-08
1.17813      	6.356212e-08
1.17915      	6.358068e-08
1.18018      	6.359664e-08
1.18121      	6.360169e-08
1.18224      	6.361480e-08
1.18326      	6.362041e-08
1.18429      	6.362591e-08
1.18532      	6.363941e-08
1.18635      	6.364900e-08
1.18737      	6.364371e-08
1.1884       	6.365060e-08
1.18943      	6.367039e-08
1.19046      	6.367831e-08
1.19149      	6.368113e-08
1.19251      	6.368973e-08
1.19354      	6.369297e-08
1.19457      	6.372479e-08
1.19559      	6.374259e-08
1.19662      	6.374225e-08
1.19765      	6.374387e-08
1.19867      	6.375610e-08
1.1997       	6.377942e-08
1.20073      	6.380513e-08
1.20176      	6.381571e-08
1.20278      	6.383227e-08
1.20381      	6.383403e-08
1.20484      	6.384346e-08
1.20587      	6.385145e-08
1.2069       	6.386082e-08
1.20793      	6.386791e-08
1.20896      	6.388728e-08
1.20999      	6.387978e-08