# Region type : patch top
# Faces  :   1000
# Area   :   6.239977e-01
# Time       	sumDirection(phiSub)
0.0119048    	1.454441e-05
0.0132083    	1.252203e-06
0.0145102    	5.708445e-07
0.015812     	3.853147e-07
0.0171173    	3.458844e-07
0.0184226    	3.176768e-07
0.0197261    	2.984487e-07
0.0210297    	2.852203e-07
0.0223315    	2.756726e-07
0.0236316    	2.684342e-07
0.02493      	2.626805e-07
0.0262266    	2.583385e-07
0.0275232    	2.548558e-07
0.0288181    	2.520245e-07
0.030113     	2.500131e-07
0.031408     	2.482820e-07
0.0327029    	2.468278e-07
0.0339978    	2.460265e-07
0.0352927    	2.454045e-07
0.0365876    	2.451211e-07
0.0378825    	2.446725e-07
0.0391774    	2.446082e-07
0.0404706    	2.442087e-07
0.0417637    	2.442087e-07
0.0430552    	2.440526e-07
0.0443466    	2.438839e-07
0.0456363    	2.439474e-07
0.0469259    	2.440011e-07
0.0482139    	2.441935e-07
0.0495001    	2.443106e-07
0.0507845    	2.446215e-07
0.052069     	2.448977e-07
0.0533517    	2.453039e-07
0.0546327    	2.457119e-07
0.0559137    	2.460882e-07
0.0571929    	2.464545e-07
0.0584722    	2.465023e-07
0.0597497    	2.463817e-07
0.0610272    	2.463709e-07
0.062303     	2.464654e-07
0.0635788    	2.466155e-07
0.0648546    	2.467963e-07
0.0661286    	2.469768e-07
0.0674026    	2.471036e-07
0.0686749    	2.471316e-07
0.0699472    	2.470940e-07
0.0712178    	2.471331e-07
0.0724866    	2.471397e-07
0.0737537    	2.471257e-07
0.0750208    	2.470492e-07
0.0762862    	2.469425e-07
0.0775498    	2.468837e-07
0.0788117    	2.470536e-07
0.0800719    	2.468409e-07
0.0813303    	2.465056e-07
0.0825871    	2.464091e-07
0.0838421    	2.464090e-07
0.0850954    	2.463971e-07
0.086347     	2.464195e-07
0.0875968    	2.464871e-07
0.088845     	2.466131e-07
0.0900914    	2.467988e-07
0.0913362    	2.469929e-07
0.0925792    	2.471764e-07
0.0938206    	2.474372e-07
0.0950602    	2.477809e-07
0.0962998    	2.482067e-07
0.0975378    	2.486425e-07
0.098774     	2.490969e-07
0.100009     	2.494025e-07
0.101241     	2.497958e-07
0.102473     	2.501969e-07
0.103702     	2.506432e-07
0.104928     	2.510486e-07
0.106153     	2.514699e-07
0.107375     	2.519339e-07
0.108597     	2.522808e-07
0.109816     	2.526691e-07
0.111032     	2.530624e-07
0.112247     	2.534550e-07
0.113459     	2.538486e-07
0.11467      	2.542527e-07
0.11588      	2.546668e-07
0.117088     	2.551382e-07
0.118294     	2.556780e-07
0.119498     	2.562756e-07
0.120701     	2.568175e-07
0.121903     	2.574158e-07
0.123102     	2.579269e-07
0.1243       	2.584425e-07
0.125496     	2.589775e-07
0.126691     	2.594941e-07
0.127884     	2.599971e-07
0.129075     	2.604727e-07
0.130265     	2.609471e-07
0.131453     	2.614764e-07
0.13264      	2.621141e-07
0.133825     	2.626076e-07
0.135008     	2.632546e-07
0.136188     	2.639012e-07
0.137367     	2.646176e-07
0.138544     	2.653739e-07
0.139719     	2.661302e-07
0.140892     	2.668497e-07
0.142065     	2.675181e-07
0.143235     	2.682919e-07
0.144404     	2.689925e-07
0.145573     	2.696843e-07
0.14674      	2.703701e-07
0.147906     	2.710723e-07
0.14907      	2.717850e-07
0.150234     	2.725749e-07
0.151396     	2.733358e-07
0.152557     	2.741275e-07
0.153718     	2.748510e-07
0.154877     	2.756733e-07
0.156036     	2.763960e-07
0.157194     	2.771084e-07
0.158352     	2.778623e-07
0.159508     	2.786781e-07
0.160664     	2.794213e-07
0.161819     	2.801636e-07
0.162973     	2.809100e-07
0.164126     	2.817073e-07
0.165279     	2.824334e-07
0.16643      	2.831623e-07
0.167582     	2.839157e-07
0.168731     	2.846561e-07
0.16988      	2.853713e-07
0.171028     	2.860435e-07
0.172174     	2.867058e-07
0.173321     	2.873754e-07
0.174466     	2.880124e-07
0.175611     	2.886082e-07
0.176754     	2.891714e-07
0.177898     	2.896871e-07
0.179039     	2.902867e-07
0.180181     	2.908093e-07
0.181322     	2.913223e-07
0.182462     	2.918602e-07
0.183602     	2.923706e-07
0.184741     	2.928786e-07
0.185879     	2.933745e-07
0.187018     	2.938880e-07
0.188155     	2.942909e-07
0.189292     	2.947747e-07
0.190429     	2.950818e-07
0.191566     	2.954660e-07
0.192703     	2.957422e-07
0.193838     	2.961023e-07
0.194974     	2.965061e-07
0.196109     	2.967269e-07
0.197245     	2.970106e-07
0.198379     	2.973403e-07
0.199512     	2.976254e-07
0.200646     	2.980372e-07
0.20178      	2.983480e-07
0.202914     	2.986213e-07
0.204046     	2.989362e-07
0.205177     	2.993318e-07
0.206306     	2.996300e-07
0.207435     	2.998104e-07
0.208562     	2.999846e-07
0.209688     	3.001854e-07
0.210812     	3.003748e-07
0.211936     	3.005925e-07
0.213059     	3.008285e-07
0.21418      	3.010293e-07
0.215301     	3.012466e-07
0.21642      	3.014816e-07
0.21754      	3.016951e-07
0.218658     	3.018691e-07
0.219774     	3.021820e-07
0.22089      	3.024141e-07
0.222005     	3.027255e-07
0.223118     	3.029781e-07
0.224229     	3.033281e-07
0.225339     	3.036895e-07
0.226447     	3.040163e-07
0.227554     	3.043002e-07
0.228659     	3.046342e-07
0.229762     	3.050049e-07
0.230866     	3.055793e-07
0.231968     	3.062797e-07
0.23307      	3.070976e-07
0.23417      	3.077117e-07
0.235269     	3.077391e-07
0.236366     	3.076443e-07
0.23746      	3.075093e-07
0.238552     	3.081577e-07
0.239643     	3.088781e-07
0.240733     	3.096117e-07
0.241822     	3.104585e-07
0.24291      	3.112946e-07
0.243996     	3.122523e-07
0.245082     	3.132857e-07
0.246167     	3.142382e-07
0.247252     	3.149751e-07
0.248336     	3.158060e-07
0.249419     	3.167368e-07
0.250502     	3.176464e-07
0.251584     	3.185443e-07
0.252664     	3.193865e-07
0.253744     	3.204963e-07
0.254822     	3.216060e-07
0.255901     	3.228995e-07
0.256979     	3.238182e-07
0.258056     	3.246517e-07
0.259133     	3.255996e-07
0.260208     	3.271718e-07
0.261282     	3.282905e-07
0.262349     	3.295816e-07
0.263411     	3.304774e-07
0.264466     	3.317651e-07
0.265515     	3.331091e-07
0.266558     	3.343062e-07
0.267596     	3.352591e-07
0.268627     	3.361294e-07
0.269655     	3.370022e-07
0.270676     	3.379970e-07
0.271692     	3.390990e-07
0.272703     	3.403335e-07
0.273711     	3.414027e-07
0.274712     	3.426232e-07
0.27571      	3.435728e-07
0.276704     	3.444753e-07
0.277693     	3.453542e-07
0.27868      	3.462499e-07
0.279663     	3.470170e-07
0.280641     	3.479742e-07
0.281617     	3.488700e-07
0.282591     	3.497234e-07
0.283562     	3.507080e-07
0.28453      	3.518290e-07
0.285495     	3.530065e-07
0.28646      	3.541313e-07
0.287421     	3.554360e-07
0.288382     	3.567238e-07
0.289341     	3.578737e-07
0.290298     	3.590650e-07
0.291255     	3.601027e-07
0.29221      	3.609868e-07
0.293165     	3.620392e-07
0.29412      	3.629350e-07
0.295073     	3.636968e-07
0.296024     	3.645766e-07
0.296973     	3.654121e-07
0.297921     	3.664536e-07
0.298865     	3.674002e-07
0.299809     	3.679807e-07
0.300751     	3.685048e-07
0.301693     	3.689560e-07
0.302634     	3.696392e-07
0.303574     	3.703693e-07
0.304513     	3.710610e-07
0.305452     	3.715356e-07
0.306391     	3.715162e-07
0.307329     	3.720108e-07
0.308268     	3.724825e-07
0.309208     	3.729575e-07
0.310147     	3.735995e-07
0.311089     	3.740206e-07
0.31203      	3.743042e-07
0.312971     	3.745726e-07
0.313911     	3.748850e-07
0.314851     	3.750032e-07
0.31579      	3.753563e-07
0.316729     	3.756439e-07
0.317667     	3.760182e-07
0.318607     	3.764988e-07
0.319547     	3.766960e-07
0.320487     	3.768802e-07
0.321428     	3.767112e-07
0.322369     	3.767749e-07
0.323311     	3.764734e-07
0.324252     	3.761627e-07
0.325193     	3.758736e-07
0.326135     	3.755311e-07
0.327078     	3.754152e-07
0.32802      	3.754689e-07
0.328964     	3.753583e-07
0.329908     	3.754170e-07
0.330853     	3.752410e-07
0.331798     	3.750227e-07
0.332745     	3.750468e-07
0.333692     	3.751240e-07
0.334641     	3.750590e-07
0.335591     	3.749109e-07
0.33654      	3.750002e-07
0.337489     	3.748426e-07
0.338438     	3.745967e-07
0.339389     	3.742734e-07
0.340339     	3.741199e-07
0.341291     	3.738659e-07
0.342243     	3.736901e-07
0.343196     	3.734070e-07
0.344151     	3.730552e-07
0.345107     	3.721196e-07
0.346064     	3.716987e-07
0.347023     	3.711784e-07
0.347982     	3.708303e-07
0.348942     	3.705316e-07
0.349903     	3.701281e-07
0.350864     	3.697277e-07
0.351826     	3.696766e-07
0.352789     	3.694105e-07
0.353754     	3.689657e-07
0.35472      	3.684378e-07
0.355687     	3.679653e-07
0.356656     	3.674831e-07
0.357626     	3.669451e-07
0.358598     	3.663751e-07
0.35957      	3.660855e-07
0.360542     	3.655371e-07
0.361515     	3.648821e-07
0.362488     	3.640682e-07
0.363463     	3.635344e-07
0.364438     	3.629840e-07
0.365413     	3.622796e-07
0.366389     	3.616291e-07
0.367365     	3.611687e-07
0.368343     	3.607117e-07
0.369321     	3.601426e-07
0.3703       	3.595220e-07
0.371281     	3.590529e-07
0.372262     	3.585877e-07
0.373244     	3.580612e-07
0.374228     	3.574751e-07
0.375212     	3.569622e-07
0.376198     	3.562203e-07
0.377183     	3.554829e-07
0.378168     	3.548165e-07
0.379154     	3.541519e-07
0.380141     	3.532729e-07
0.381128     	3.527117e-07
0.382117     	3.520675e-07
0.383105     	3.515035e-07
0.384095     	3.508078e-07
0.385086     	3.501409e-07
0.386077     	3.496904e-07
0.387071     	3.487514e-07
0.388064     	3.478323e-07
0.389059     	3.472283e-07
0.390056     	3.466651e-07
0.391053     	3.459755e-07
0.392049     	3.453258e-07
0.393046     	3.446175e-07
0.394042     	3.439419e-07
0.395041     	3.432825e-07
0.396039     	3.426769e-07
0.397039     	3.420339e-07
0.398039     	3.413694e-07
0.399041     	3.407940e-07
0.400042     	3.400956e-07
0.401044     	3.394930e-07
0.402045     	3.388544e-07
0.403049     	3.381226e-07
0.404052     	3.375214e-07
0.405055     	3.367734e-07
0.406058     	3.361268e-07
0.407063     	3.356161e-07
0.408068     	3.351219e-07
0.409075     	3.344107e-07
0.410083     	3.338752e-07
0.411092     	3.333325e-07
0.412102     	3.328705e-07
0.413114     	3.321593e-07
0.414128     	3.314607e-07
0.415139     	3.307822e-07
0.416149     	3.301328e-07
0.417158     	3.296375e-07
0.418165     	3.294288e-07
0.419169     	3.289433e-07
0.420173     	3.285793e-07
0.421174     	3.281186e-07
0.422175     	3.276276e-07
0.423175     	3.271260e-07
0.424175     	3.267910e-07
0.425173     	3.264826e-07
0.426171     	3.260609e-07
0.427167     	3.255425e-07
0.428163     	3.248951e-07
0.429159     	3.245923e-07
0.430156     	3.240962e-07
0.431152     	3.237153e-07
0.432148     	3.233123e-07
0.433144     	3.228808e-07
0.434141     	3.224172e-07
0.435137     	3.219916e-07
0.436133     	3.215366e-07
0.437131     	3.210908e-07
0.438129     	3.207731e-07
0.439127     	3.203994e-07
0.440127     	3.200539e-07
0.441127     	3.195927e-07
0.442126     	3.191944e-07
0.443128     	3.187141e-07
0.44413      	3.182411e-07
0.445133     	3.178536e-07
0.446136     	3.175575e-07
0.447141     	3.172838e-07
0.448147     	3.169749e-07
0.449152     	3.165731e-07
0.450157     	3.161885e-07
0.451164     	3.159020e-07
0.452171     	3.156558e-07
0.453178     	3.152662e-07
0.454187     	3.148544e-07
0.455196     	3.144449e-07
0.456207     	3.140963e-07
0.457217     	3.138138e-07
0.45823      	3.135251e-07
0.459243     	3.132775e-07
0.460257     	3.129489e-07
0.461274     	3.125722e-07
0.46229      	3.123329e-07
0.463309     	3.120232e-07
0.464329     	3.117146e-07
0.465349     	3.114533e-07
0.466372     	3.112006e-07
0.467396     	3.109720e-07
0.468422     	3.107578e-07
0.469448     	3.106724e-07
0.470476     	3.104399e-07
0.471505     	3.103081e-07
0.472535     	3.100395e-07
0.473565     	3.098770e-07
0.474595     	3.097471e-07
0.475625     	3.097391e-07
0.476658     	3.097538e-07
0.47769      	3.096676e-07
0.478722     	3.095674e-07
0.479756     	3.094474e-07
0.480791     	3.094249e-07
0.481825     	3.092965e-07
0.482861     	3.092738e-07
0.483898     	3.091830e-07
0.484936     	3.090484e-07
0.485975     	3.089998e-07
0.487015     	3.089422e-07
0.488056     	3.089914e-07
0.489098     	3.091149e-07
0.490141     	3.092734e-07
0.491186     	3.092427e-07
0.492233     	3.091311e-07
0.49328      	3.090222e-07
0.494329     	3.088774e-07
0.49538      	3.086987e-07
0.496431     	3.087384e-07
0.497485     	3.084508e-07
0.498538     	3.083652e-07
0.499594     	3.082989e-07
0.50065      	3.083185e-07
0.501705     	3.083398e-07
0.502763     	3.082282e-07
0.503821     	3.082929e-07
0.504879     	3.083282e-07
0.505937     	3.083369e-07
0.506997     	3.081887e-07
0.508058     	3.079882e-07
0.509118     	3.079370e-07
0.51018      	3.079392e-07
0.511243     	3.079382e-07
0.512305     	3.080103e-07
0.51337      	3.080125e-07
0.514435     	3.081053e-07
0.515502     	3.082694e-07
0.516569     	3.083148e-07
0.517639     	3.085013e-07
0.518709     	3.085549e-07
0.51978      	3.087367e-07
0.520852     	3.087520e-07
0.521927     	3.088385e-07
0.523001     	3.090798e-07
0.524078     	3.091389e-07
0.525155     	3.091115e-07
0.526234     	3.091744e-07
0.527313     	3.092590e-07
0.528395     	3.094809e-07
0.529476     	3.097295e-07
0.53056      	3.097146e-07
0.531645     	3.098378e-07
0.532729     	3.100497e-07
0.533813     	3.102526e-07
0.5349       	3.103751e-07
0.535986     	3.105763e-07
0.537073     	3.107877e-07
0.53816      	3.109360e-07
0.539249     	3.111577e-07
0.540338     	3.113545e-07
0.541427     	3.114720e-07
0.542519     	3.117939e-07
0.543611     	3.121502e-07
0.544703     	3.123283e-07
0.545797     	3.128994e-07
0.546892     	3.132062e-07
0.547986     	3.136453e-07
0.549083     	3.139436e-07
0.550181     	3.142112e-07
0.55128      	3.145282e-07
0.55238      	3.150407e-07
0.553477     	3.156803e-07
0.554572     	3.163263e-07
0.555666     	3.169405e-07
0.556758     	3.174807e-07
0.557847     	3.180942e-07
0.558936     	3.186891e-07
0.560022     	3.194251e-07
0.561106     	3.199700e-07
0.56219      	3.201428e-07
0.563271     	3.206098e-07
0.564352     	3.210771e-07
0.56543      	3.212268e-07
0.566508     	3.214377e-07
0.567584     	3.217586e-07
0.568657     	3.223501e-07
0.56973      	3.227677e-07
0.5708       	3.232339e-07
0.571868     	3.237317e-07
0.572936     	3.241743e-07
0.574001     	3.246684e-07
0.575066     	3.252963e-07
0.576131     	3.258983e-07
0.577193     	3.266108e-07
0.578255     	3.271660e-07
0.579318     	3.274733e-07
0.58038      	3.277613e-07
0.581442     	3.281141e-07
0.582505     	3.284378e-07
0.583567     	3.287911e-07
0.584629     	3.292133e-07
0.585692     	3.294769e-07
0.586751     	3.298721e-07
0.587811     	3.302765e-07
0.58887      	3.308236e-07
0.58993      	3.312748e-07
0.59099      	3.316613e-07
0.592047     	3.320665e-07
0.593103     	3.325426e-07
0.59416      	3.330111e-07
0.595214     	3.334074e-07
0.596269     	3.337670e-07
0.597323     	3.340728e-07
0.598377     	3.343778e-07
0.599431     	3.348289e-07
0.600482     	3.352496e-07
0.601534     	3.357059e-07
0.602582     	3.360975e-07
0.603631     	3.365475e-07
0.604679     	3.368171e-07
0.605728     	3.372722e-07
0.606777     	3.376781e-07
0.607825     	3.381155e-07
0.608874     	3.385385e-07
0.609922     	3.389498e-07
0.610968     	3.392121e-07
0.612014     	3.392294e-07
0.61306      	3.393614e-07
0.614106     	3.397998e-07
0.615151     	3.400306e-07
0.616194     	3.404086e-07
0.617237     	3.407742e-07
0.61828      	3.411972e-07
0.619323     	3.414472e-07
0.620366     	3.417044e-07
0.621406     	3.419883e-07
0.622446     	3.423451e-07
0.623483     	3.426436e-07
0.624521     	3.429467e-07
0.625558     	3.432299e-07
0.626592     	3.435992e-07
0.627627     	3.440294e-07
0.628661     	3.443145e-07
0.629695     	3.444474e-07
0.63073      	3.447181e-07
0.631764     	3.449778e-07
0.632799     	3.452341e-07
0.63383      	3.456530e-07
0.634861     	3.460710e-07
0.635893     	3.463531e-07
0.636924     	3.467019e-07
0.637956     	3.470181e-07
0.638984     	3.473008e-07
0.640013     	3.477528e-07
0.641041     	3.480198e-07
0.64207      	3.483239e-07
0.643096     	3.487003e-07
0.644121     	3.489164e-07
0.645144     	3.491961e-07
0.646166     	3.496308e-07
0.647189     	3.499205e-07
0.648209     	3.503517e-07
0.649228     	3.508122e-07
0.650245     	3.512826e-07
0.651262     	3.519917e-07
0.652279     	3.530411e-07
0.653292     	3.548485e-07
0.654306     	3.578781e-07
0.65532      	3.629226e-07
0.656334     	3.704010e-07
0.657345     	3.777692e-07
0.658355     	3.813510e-07
0.659369     	3.791184e-07
0.66038      	3.781133e-07
0.661391     	3.791871e-07
0.662401     	3.801744e-07
0.663412     	3.805717e-07
0.664423     	3.794057e-07
0.665434     	3.792823e-07
0.666444     	3.768528e-07
0.667455     	3.737521e-07
0.668466     	3.715160e-07
0.669477     	3.698430e-07
0.670488     	3.686024e-07
0.671498     	3.678662e-07
0.672506     	3.672980e-07
0.673514     	3.671058e-07
0.674521     	3.670506e-07
0.675529     	3.670390e-07
0.67654      	3.669538e-07
0.677551     	3.668591e-07
0.678562     	3.668849e-07
0.679572     	3.670262e-07
0.680583     	3.671315e-07
0.681594     	3.672641e-07
0.682605     	3.675553e-07
0.683612     	3.679879e-07
0.68462      	3.683309e-07
0.685624     	3.687356e-07
0.686629     	3.689029e-07
0.687633     	3.690755e-07
0.688634     	3.692628e-07
0.689635     	3.694059e-07
0.690637     	3.695121e-07
0.691638     	3.697535e-07
0.692639     	3.699502e-07
0.69364      	3.696639e-07
0.694641     	3.688326e-07
0.695639     	3.681686e-07
0.696637     	3.679249e-07
0.697635     	3.681670e-07
0.698633     	3.685637e-07
0.699631     	3.699811e-07
0.700629     	3.717172e-07
0.701627     	3.711940e-07
0.702625     	3.691475e-07
0.703623     	3.674814e-07
0.70462      	3.662306e-07
0.705618     	3.653986e-07
0.706616     	3.647251e-07
0.707611     	3.642872e-07
0.708605     	3.633881e-07
0.7096       	3.628055e-07
0.710598     	3.622473e-07
0.711592     	3.618763e-07
0.712587     	3.614890e-07
0.713581     	3.612095e-07
0.714576     	3.611375e-07
0.71557      	3.611019e-07
0.716565     	3.610820e-07
0.717559     	3.611657e-07
0.718554     	3.612165e-07
0.719548     	3.611250e-07
0.720543     	3.613272e-07
0.721537     	3.621188e-07
0.722532     	3.631062e-07
0.723526     	3.646705e-07
0.724521     	3.663670e-07
0.725515     	3.653099e-07
0.72651      	3.645244e-07
0.727504     	3.650069e-07
0.728499     	3.667673e-07
0.729493     	3.694296e-07
0.730488     	3.698550e-07
0.731482     	3.670984e-07
0.732477     	3.652047e-07
0.733471     	3.638891e-07
0.734466     	3.627793e-07
0.73546      	3.611262e-07
0.736455     	3.594641e-07
0.737449     	3.600178e-07
0.738448     	3.607189e-07
0.739446     	3.614396e-07
0.740444     	3.625383e-07
0.741439     	3.627527e-07
0.742433     	3.615039e-07
0.743432     	3.601105e-07
0.74443      	3.591619e-07
0.745428     	3.584239e-07
0.746427     	3.576594e-07
0.747425     	3.568858e-07
0.748427     	3.560501e-07
0.749429     	3.552063e-07
0.750432     	3.545890e-07
0.751434     	3.540566e-07
0.752436     	3.534359e-07
0.753439     	3.529236e-07
0.754441     	3.525452e-07
0.755447     	3.521606e-07
0.756454     	3.517874e-07
0.75746      	3.514432e-07
0.758466     	3.510838e-07
0.759473     	3.507852e-07
0.760479     	3.499441e-07
0.761486     	3.490639e-07
0.762492     	3.482881e-07
0.763498     	3.475212e-07
0.764509     	3.467827e-07
0.76552      	3.460801e-07
0.766535     	3.454964e-07
0.76755      	3.449732e-07
0.768569     	3.445078e-07
0.769589     	3.440267e-07
0.770613     	3.438742e-07
0.771637     	3.437639e-07
0.772666     	3.436093e-07
0.773699     	3.433331e-07
0.774732     	3.430440e-07
0.77577      	3.427261e-07
0.776813     	3.422165e-07
0.777861     	3.417301e-07
0.778914     	3.412793e-07
0.779967     	3.409970e-07
0.781025     	3.406942e-07
0.782088     	3.403288e-07
0.783156     	3.400165e-07
0.784224     	3.399261e-07
0.785298     	3.398172e-07
0.786376     	3.393482e-07
0.787455     	3.390322e-07
0.78854      	3.388354e-07
0.78963      	3.386540e-07
0.79072      	3.384333e-07
0.791815     	3.381208e-07
0.792917     	3.380496e-07
0.794018     	3.382459e-07
0.79512      	3.385751e-07
0.796222     	3.389948e-07
0.797329     	3.386572e-07
0.798436     	3.378013e-07
0.799544     	3.374505e-07
0.800651     	3.370148e-07
0.801765     	3.367382e-07
0.802879     	3.364802e-07
0.803993     	3.363829e-07
0.805113     	3.362238e-07
0.806233     	3.359338e-07
0.807353     	3.357402e-07
0.808479     	3.355524e-07
0.809606     	3.354245e-07
0.810732     	3.354295e-07
0.811866     	3.356664e-07
0.812999     	3.359107e-07
0.814132     	3.363913e-07
0.815266     	3.370232e-07
0.816406     	3.369257e-07
0.817546     	3.369131e-07
0.818687     	3.369164e-07
0.819827     	3.369864e-07
0.820975     	3.373052e-07
0.822122     	3.371381e-07
0.82327      	3.358522e-07
0.824417     	3.350677e-07
0.825573     	3.343704e-07
0.826728     	3.338722e-07
0.827875     	3.336482e-07
0.829023     	3.328216e-07
0.83017      	3.320572e-07
0.831318     	3.318037e-07
0.832465     	3.314283e-07
0.833613     	3.310439e-07
0.834752     	3.308215e-07
0.835892     	3.304721e-07
0.837032     	3.299301e-07
0.838171     	3.296137e-07
0.839311     	3.293716e-07
0.840451     	3.292625e-07
0.84159      	3.291067e-07
0.84273      	3.291604e-07
0.84387      	3.287557e-07
0.845009     	3.284576e-07
0.846149     	3.282563e-07
0.847288     	3.282700e-07
0.848428     	3.281832e-07
0.849568     	3.281848e-07
0.850716     	3.277765e-07
0.851864     	3.274070e-07
0.853013     	3.273004e-07
0.854161     	3.271199e-07
0.855309     	3.271645e-07
0.856458     	3.270807e-07
0.857606     	3.269096e-07
0.858754     	3.268822e-07
0.859903     	3.269221e-07
0.861051     	3.269088e-07
0.862199     	3.266291e-07
0.863348     	3.264610e-07
0.864506     	3.263861e-07
0.865664     	3.264821e-07
0.866822     	3.264257e-07
0.86798      	3.262487e-07
0.869138     	3.262575e-07
0.870296     	3.260577e-07
0.871454     	3.259690e-07
0.872612     	3.257777e-07
0.87377      	3.255882e-07
0.874928     	3.253303e-07
0.876097     	3.250438e-07
0.877266     	3.249027e-07
0.878435     	3.249506e-07
0.879604     	3.249795e-07
0.880773     	3.249923e-07
0.881942     	3.248705e-07
0.883111     	3.248982e-07
0.88428      	3.248267e-07
0.885449     	3.247913e-07
0.886617     	3.246721e-07
0.887798     	3.245677e-07
0.88898      	3.245341e-07
0.890161     	3.245248e-07
0.891342     	3.245467e-07
0.892523     	3.246204e-07
0.893704     	3.247078e-07
0.894885     	3.247966e-07
0.896066     	3.247778e-07
0.897247     	3.249264e-07
0.898428     	3.249831e-07
0.899609     	3.250577e-07
0.90079      	3.250525e-07
0.901971     	3.251153e-07
0.903152     	3.251468e-07
0.904333     	3.251136e-07
0.905515     	3.250872e-07
0.906696     	3.249116e-07
0.907877     	3.249109e-07
0.909073     	3.249416e-07
0.910269     	3.250033e-07
0.911466     	3.250313e-07
0.912662     	3.252096e-07
0.913859     	3.253559e-07
0.915055     	3.254836e-07
0.916251     	3.254159e-07
0.917448     	3.254767e-07
0.918644     	3.257582e-07
0.919841     	3.260954e-07
0.921037     	3.261867e-07
0.922234     	3.262065e-07
0.92343      	3.262535e-07
0.924626     	3.264325e-07
0.925823     	3.266932e-07
0.927019     	3.270810e-07
0.928216     	3.274192e-07
0.929412     	3.276590e-07
0.930608     	3.278151e-07
0.931805     	3.279259e-07
0.933001     	3.281121e-07
0.934198     	3.283846e-07
0.935394     	3.285872e-07
0.93659      	3.288316e-07
0.937787     	3.292284e-07
0.938983     	3.296719e-07
0.94018      	3.300555e-07
0.941376     	3.306805e-07
0.942572     	3.311740e-07
0.943769     	3.314179e-07
0.944965     	3.316405e-07
0.946162     	3.319813e-07
0.947358     	3.320980e-07
0.948554     	3.323772e-07
0.949751     	3.327350e-07
0.950947     	3.330068e-07
0.952144     	3.332148e-07
0.95334      	3.335191e-07
0.954537     	3.337390e-07
0.955733     	3.340636e-07
0.956929     	3.341629e-07
0.958126     	3.344205e-07
0.959322     	3.346660e-07
0.960519     	3.348804e-07
0.961715     	3.350885e-07
0.962911     	3.354520e-07
0.964108     	3.357360e-07
0.965304     	3.360460e-07
0.966501     	3.363062e-07
0.967697     	3.366162e-07
0.968893     	3.368496e-07
0.97009      	3.370720e-07
0.971286     	3.373851e-07
0.972483     	3.376338e-07
0.973679     	3.379492e-07
0.974875     	3.381484e-07
0.976072     	3.384654e-07
0.977268     	3.388909e-07
0.978465     	3.393310e-07
0.979661     	3.398188e-07
0.980857     	3.402651e-07
0.982054     	3.409771e-07
0.98325      	3.419079e-07
0.984447     	3.429198e-07
0.985643     	3.434766e-07
0.98684      	3.432752e-07
0.988036     	3.430958e-07
0.989232     	3.431352e-07
0.990429     	3.433507e-07
0.991625     	3.435773e-07
0.992822     	3.438454e-07
0.994018     	3.441430e-07
0.995214     	3.446514e-07
0.996411     	3.449583e-07
0.997607     	3.453646e-07
0.998804     	3.458210e-07
1            	3.461896e-07
1.00121      	3.463891e-07
1.00241      	3.466740e-07
1.00361      	3.469133e-07
1.00482      	3.471827e-07
1.00602      	3.474764e-07
1.00722      	3.478563e-07
1.00841      	3.482283e-07
1.00961      	3.486269e-07
1.0108       	3.489839e-07
1.012        	3.493829e-07
1.01319      	3.498430e-07
1.01438      	3.502827e-07
1.01557      	3.507567e-07
1.01675      	3.512126e-07
1.01794      	3.516394e-07
1.01912      	3.520725e-07
1.0203       	3.524368e-07
1.02148      	3.528328e-07
1.02266      	3.532523e-07
1.02384      	3.535912e-07
1.02501      	3.537540e-07
1.02618      	3.540322e-07
1.02735      	3.543335e-07
1.02852      	3.547575e-07
1.02969      	3.550553e-07
1.03085      	3.554308e-07
1.03201      	3.557600e-07
1.03317      	3.561185e-07
1.03433      	3.564693e-07
1.03549      	3.568630e-07
1.03664      	3.572876e-07
1.03779      	3.577380e-07
1.03894      	3.582288e-07
1.04009      	3.588211e-07
1.04123      	3.593277e-07
1.04237      	3.598857e-07
1.04351      	3.604076e-07
1.04465      	3.608085e-07
1.04578      	3.612686e-07
1.04692      	3.617004e-07
1.04805      	3.621113e-07
1.04918      	3.625115e-07
1.0503       	3.629336e-07
1.05143      	3.634456e-07
1.05255      	3.639995e-07
1.05367      	3.644970e-07
1.05479      	3.648830e-07
1.05591      	3.654185e-07
1.05702      	3.658355e-07
1.05814      	3.662082e-07
1.05925      	3.665165e-07
1.06035      	3.668538e-07
1.06146      	3.673679e-07
1.06256      	3.677228e-07
1.06367      	3.680824e-07
1.06476      	3.685726e-07
1.06586      	3.688280e-07
1.06696      	3.691290e-07
1.06805      	3.696465e-07
1.06914      	3.700591e-07
1.07024      	3.703770e-07
1.07133      	3.707220e-07
1.07241      	3.710766e-07
1.0735       	3.715372e-07
1.07459      	3.720034e-07
1.07567      	3.723739e-07
1.07676      	3.727296e-07
1.07784      	3.731483e-07
1.07892      	3.735643e-07
1.08         	3.739837e-07
1.08108      	3.742968e-07
1.08216      	3.746679e-07
1.08323      	3.749273e-07
1.08431      	3.751278e-07
1.08538      	3.755388e-07
1.08645      	3.758547e-07
1.08753      	3.762331e-07
1.0886       	3.766012e-07
1.08967      	3.770156e-07
1.09073      	3.774589e-07
1.0918       	3.778918e-07
1.09287      	3.783178e-07
1.09394      	3.787806e-07
1.095        	3.792780e-07
1.09607      	3.797739e-07
1.09713      	3.802303e-07
1.09819      	3.807429e-07
1.09926      	3.811538e-07
1.10032      	3.816563e-07
1.10138      	3.821747e-07
1.10244      	3.825913e-07
1.10349      	3.831309e-07
1.10455      	3.836509e-07
1.1056       	3.842436e-07
1.10666      	3.847023e-07
1.10771      	3.852678e-07
1.10877      	3.857394e-07
1.10982      	3.861157e-07
1.11087      	3.866169e-07
1.11192      	3.871750e-07
1.11297      	3.876033e-07
1.11402      	3.878347e-07
1.11507      	3.881432e-07
1.11611      	3.885526e-07
1.11716      	3.889718e-07
1.11821      	3.894278e-07
1.11925      	3.898346e-07
1.1203       	3.901592e-07
1.12135      	3.904887e-07
1.12239      	3.907669e-07
1.12344      	3.912112e-07
1.12448      	3.916267e-07
1.12553      	3.920246e-07
1.12657      	3.924375e-07
1.12761      	3.927143e-07
1.12865      	3.931186e-07
1.1297       	3.934717e-07
1.13074      	3.938907e-07
1.13178      	3.942189e-07
1.13282      	3.945509e-07
1.13385      	3.949502e-07
1.13489      	3.953587e-07
1.13593      	3.957316e-07
1.13697      	3.960616e-07
1.138        	3.964727e-07
1.13904      	3.968210e-07
1.14008      	3.971160e-07
1.14111      	3.974606e-07
1.14214      	3.977755e-07
1.14317      	3.980980e-07
1.1442       	3.984213e-07
1.14523      	3.987650e-07
1.14626      	3.990580e-07
1.14729      	3.993744e-07
1.14832      	3.995881e-07
1.14935      	3.998373e-07
1.15038      	4.000972e-07
1.15141      	4.004576e-07
1.15244      	4.007185e-07
1.15347      	4.010044e-07
1.15449      	4.013414e-07
1.15552      	4.015793e-07
1.15654      	4.017509e-07
1.15757      	4.019705e-07
1.1586       	4.021767e-07
1.15962      	4.024989e-07
1.16065      	4.027129e-07
1.16168      	4.029750e-07
1.16271      	4.032628e-07
1.16373      	4.035361e-07
1.16476      	4.037359e-07
1.16579      	4.039500e-07
1.16682      	4.041740e-07
1.16784      	4.044427e-07
1.16887      	4.048068e-07
1.1699       	4.049968e-07
1.17093      	4.052339e-07
1.17195      	4.053902e-07
1.17298      	4.056121e-07
1.17401      	4.057582e-07
1.17503      	4.060264e-07
1.17606      	4.062557e-07
1.17709      	4.064860e-07
1.17811      	4.067183e-07
1.17914      	4.070046e-07
1.18016      	4.072308e-07
1.18119      	4.074107e-07
1.18222      	4.075650e-07
1.18325      	4.077288e-07
1.18427      	4.079064e-07
1.1853       	4.081157e-07
1.18633      	4.082346e-07
1.18736      	4.083151e-07
1.18838      	4.084343e-07
1.18941      	4.085487e-07
1.19044      	4.086378e-07
1.19147      	4.087286e-07
1.1925       	4.088481e-07
1.19352      	4.090466e-07
1.19455      	4.092246e-07
1.19558      	4.093777e-07
1.1966       	4.094652e-07
1.19763      	4.096596e-07
1.19866      	4.098422e-07
1.19968      	4.100176e-07
1.20071      	4.101534e-07
1.20174      	4.103054e-07
1.20277      	4.104125e-07
1.2038       	4.105427e-07
1.20483      	4.107327e-07
1.20586      	4.108920e-07
1.20689      	4.110459e-07
1.20791      	4.112016e-07
1.20894      	4.112081e-07
1.20997      	4.113240e-07