# Region type : patch bottom
# Faces  :   1000
# Area   :   6.239977e-01
# Time       	sum(phi)
0.0119048    	0.000000e+00
0.0132083    	-3.970467e-22
0.0145102    	2.326445e-24
0.015812     	8.401053e-25
0.0171173    	-3.037304e-23
0.0184226    	1.624634e-23
0.0197261    	7.662730e-24
0.0210297    	-1.340937e-24
0.0223315    	2.512561e-23
0.0236316    	-6.061683e-24
0.02493      	1.192950e-23
0.0262266    	-7.341228e-24
0.0275232    	1.870204e-23
0.0288181    	1.641437e-24
0.030113     	1.314442e-23
0.031408     	-3.838635e-24
0.0327029    	-8.065011e-24
0.0339978    	7.276604e-24
0.0352927    	-2.844726e-23
0.0365876    	-1.287300e-23
0.0378825    	-2.106726e-24
0.0391774    	1.282130e-23
0.0404706    	5.195728e-24
0.0417637    	-2.035640e-23
0.0430552    	7.056885e-24
0.0443466    	-9.383330e-24
0.0456363    	-3.011454e-24
0.0469259    	-6.371876e-24
0.0482139    	5.169879e-24
0.0495001    	-4.122978e-24
0.0507845    	3.295798e-24
0.052069     	1.181317e-23
0.0533517    	3.205325e-24
0.0546327    	-1.636267e-23
0.0559137    	-7.211981e-24
0.0571929    	-2.468617e-24
0.0584722    	1.160638e-23
0.0597497    	9.693523e-24
0.0610272    	4.549493e-24
0.062303     	-2.207538e-23
0.0635788    	-6.475273e-24
0.0648546    	-1.887006e-23
0.0661286    	-9.396255e-24
0.0674026    	-2.817584e-24
0.0686749    	1.370018e-24
0.0699472    	2.292841e-23
0.0712178    	-1.642729e-23
0.0724866    	2.035640e-23
0.0737537    	1.464368e-23
0.0750208    	-2.330323e-23
0.0762862    	9.008514e-24
0.0775498    	-1.743542e-23
0.0788117    	-2.551335e-23
0.0800719    	7.690195e-24
0.0813303    	6.397725e-24
0.0825871    	-5.583469e-24
0.0838421    	3.437969e-24
0.0850954    	5.505921e-24
0.086347     	1.155468e-23
0.0875968    	-2.168764e-23
0.088845     	3.158796e-23
0.0900914    	-5.402523e-24
0.0913362    	1.801703e-23
0.0925792    	1.209752e-23
0.0938206    	-1.850817e-23
0.0950602    	1.990403e-24
0.0962998    	1.550964e-24
0.0975378    	2.556505e-23
0.098774     	1.943874e-23
0.100009     	7.754818e-26
0.101241     	1.561303e-23
0.102473     	3.515518e-24
0.103702     	-2.765885e-24
0.104928     	1.698305e-23
0.106153     	-6.927638e-24
0.107375     	-1.026221e-23
0.108597     	-9.926167e-24
0.109816     	-5.040632e-24
0.111032     	1.111524e-23
0.112247     	5.324975e-24
0.113459     	-8.401053e-24
0.11467      	9.977866e-24
0.11588      	-4.446096e-24
0.117088     	2.305766e-23
0.118294     	-5.066481e-24
0.119498     	2.168764e-23
0.120701     	-1.326074e-23
0.121903     	-9.796920e-24
0.123102     	1.054655e-23
0.1243       	3.670614e-24
0.125496     	-1.504435e-23
0.126691     	-1.183902e-23
0.127884     	3.443139e-23
0.129075     	1.783608e-24
0.130265     	-4.807987e-24
0.131453     	3.024379e-24
0.13264      	-1.372603e-23
0.133825     	2.300596e-23
0.135008     	-1.781023e-23
0.136188     	-2.199783e-23
0.137367     	-2.049857e-23
0.138544     	-2.600449e-23
0.139719     	-1.494095e-23
0.140892     	2.282502e-23
0.142065     	-2.016253e-24
0.143235     	-1.680211e-24
0.144404     	-1.762929e-23
0.145573     	-1.680211e-24
0.14674      	5.583469e-24
0.147906     	5.790264e-24
0.14907      	1.253696e-23
0.150234     	-1.114109e-23
0.151396     	-4.549493e-24
0.152557     	1.124449e-23
0.153718     	-1.809458e-24
0.154877     	1.354508e-23
0.156036     	5.144029e-24
0.157194     	1.432056e-23
0.158352     	7.263680e-24
0.159508     	-3.696463e-24
0.160664     	1.002956e-23
0.161819     	1.266620e-24
0.162973     	-2.584939e-25
0.164126     	2.636638e-24
0.165279     	7.754818e-24
0.16643      	-1.310564e-23
0.167582     	-7.211981e-24
0.168731     	9.796920e-24
0.16988      	-8.788794e-25
0.171028     	1.307979e-23
0.172174     	1.315734e-23
0.173321     	1.080505e-23
0.174466     	-1.163223e-24
0.175611     	1.685380e-23
0.176754     	7.211981e-24
0.177898     	-1.830137e-23
0.179039     	-3.722313e-24
0.180181     	4.678740e-24
0.181322     	1.995573e-23
0.182462     	-2.403994e-24
0.183602     	5.945361e-24
0.184741     	4.110054e-23
0.185879     	1.990403e-24
0.187018     	-2.326445e-23
0.188155     	2.013668e-23
0.189292     	2.652148e-23
0.190429     	-2.067952e-25
0.191566     	1.351923e-23
0.192703     	5.169879e-24
0.193838     	-2.579770e-23
0.194974     	-2.920982e-24
0.196109     	-1.452736e-23
0.197245     	2.765885e-23
0.198379     	-1.145128e-23
0.199512     	1.075335e-23
0.200646     	2.067952e-24
0.20178      	-2.481542e-24
0.202914     	-9.564276e-24
0.204046     	-3.399195e-23
0.205177     	1.525114e-23
0.206306     	-1.863741e-23
0.207435     	2.610789e-24
0.208562     	-2.455692e-24
0.209688     	-4.110054e-24
0.210812     	-7.289529e-24
0.211936     	-2.052442e-23
0.213059     	-1.075335e-23
0.21418      	2.988190e-23
0.215301     	-1.168393e-23
0.21642      	1.276960e-23
0.21754      	6.100457e-24
0.218658     	1.132203e-23
0.219774     	9.564276e-25
0.22089      	-1.398452e-23
0.222005     	2.657318e-23
0.223118     	8.168409e-24
0.224229     	3.401780e-23
0.225339     	1.770683e-23
0.226447     	5.169879e-26
0.227554     	-2.507391e-24
0.228659     	1.499265e-24
0.229762     	1.266620e-23
0.230866     	-1.432056e-23
0.231968     	3.556877e-23
0.23307      	9.771071e-24
0.23417      	7.341228e-24
0.235269     	-6.296912e-23
0.236366     	1.613002e-23
0.23746      	-1.090844e-23
0.238552     	2.998530e-23
0.239643     	2.176519e-23
0.240733     	-6.824240e-24
0.241822     	-3.205325e-24
0.24291      	9.047288e-24
0.243996     	2.724526e-23
0.245082     	-1.266620e-23
0.246167     	2.765885e-23
0.247252     	-4.342698e-24
0.248336     	1.204582e-23
0.249419     	1.189072e-23
0.250502     	-3.365591e-23
0.251584     	-4.311679e-23
0.252664     	-1.478585e-23
0.253744     	4.694250e-23
0.254822     	-1.235601e-23
0.255901     	1.085675e-24
0.256979     	-1.033976e-23
0.258057     	-1.561303e-23
0.259136     	-4.135903e-24
0.260211     	9.460878e-24
0.261285     	4.963084e-24
0.262352     	-1.773268e-23
0.263414     	-4.135903e-24
0.264469     	1.209752e-23
0.265518     	1.488925e-23
0.266562     	-1.287300e-23
0.267599     	3.045059e-23
0.26863      	4.911385e-24
0.269658     	4.963084e-24
0.270679     	-5.635168e-23
0.271695     	-3.929108e-24
0.272706     	9.047288e-24
0.273714     	-1.457906e-23
0.274716     	1.581983e-23
0.275713     	-1.447566e-23
0.276707     	-3.184645e-23
0.277696     	-2.636638e-23
0.278683     	-4.756289e-24
0.279666     	1.411377e-23
0.280644     	-1.933535e-23
0.28162      	6.048758e-24
0.282594     	1.432056e-23
0.283565     	-1.137373e-24
0.284533     	3.019209e-23
0.285498     	-1.204582e-23
0.286463     	3.779181e-23
0.287424     	2.264407e-23
0.288385     	-9.409179e-24
0.289344     	-4.389227e-23
0.290301     	1.121864e-23
0.291258     	4.963084e-24
0.292214     	-5.583469e-24
0.293169     	6.276233e-23
0.294125     	-1.292470e-24
0.295077     	-5.707546e-23
0.296029     	6.384800e-23
0.296977     	-6.824240e-24
0.297925     	-2.827924e-23
0.29887      	3.277703e-23
0.299813     	-1.137373e-24
0.300756     	1.395867e-24
0.301697     	2.915812e-23
0.302638     	-3.474159e-23
0.303578     	1.566473e-23
0.304518     	2.119650e-24
0.305456     	-7.961613e-24
0.306395     	1.044316e-23
0.307333     	-5.190558e-23
0.308272     	1.101184e-23
0.309212     	7.909915e-24
0.310152     	-9.305782e-25
0.311093     	-9.926167e-24
0.312034     	-1.033976e-24
0.312975     	-1.509605e-23
0.313915     	-4.859686e-24
0.314855     	3.406950e-23
0.315795     	-1.106354e-23
0.316733     	-1.700890e-23
0.317672     	-1.199412e-23
0.318611     	1.716400e-23
0.319551     	4.696835e-23
0.320491     	5.030292e-23
0.321432     	-4.019581e-23
0.322375     	3.303553e-23
0.323316     	4.110054e-23
0.324257     	-1.313149e-23
0.325198     	-1.375188e-23
0.326141     	-1.106354e-23
0.327083     	-2.804659e-23
0.328026     	-5.635168e-23
0.328969     	-2.444060e-23
0.329913     	-1.454028e-23
0.330858     	1.885713e-23
0.331805     	2.506745e-23
0.332751     	-2.133544e-23
0.333699     	6.793544e-24
0.334648     	1.547732e-23
0.335597     	-1.477293e-23
0.336546     	1.802349e-23
0.337496     	-4.435756e-23
0.338445     	-1.380358e-23
0.339395     	3.319062e-23
0.340346     	-2.825339e-23
0.341298     	1.227846e-23
0.342249     	-3.525857e-23
0.343203     	-4.911385e-25
0.344157     	1.116694e-23
0.345113     	-2.016253e-23
0.346071     	3.980807e-24
0.34703      	-4.565003e-23
0.347989     	3.091588e-23
0.348949     	1.861156e-23
0.349909     	1.814627e-23
0.350871     	-2.791735e-24
0.351832     	1.809458e-24
0.352796     	-2.486712e-23
0.35376      	-3.774012e-23
0.354726     	-2.662488e-23
0.355693     	2.481542e-24
0.356662     	-6.286573e-23
0.357633     	-3.929108e-23
0.358604     	-2.646978e-23
0.359576     	-2.688337e-24
0.360548     	3.929108e-24
0.361521     	6.927638e-24
0.362495     	-3.101927e-24
0.363469     	-2.098971e-23
0.364444     	-4.259980e-23
0.365419     	-5.490411e-23
0.366395     	2.574600e-23
0.367372     	-2.409164e-23
0.368349     	-8.375204e-24
0.369327     	-4.859686e-24
0.370306     	-4.983763e-23
0.371287     	-1.613002e-23
0.372268     	7.031035e-24
0.37325      	5.697206e-23
0.374234     	-5.480072e-24
0.375218     	8.685396e-24
0.376204     	5.376674e-24
0.377189     	5.893662e-24
0.378175     	9.719372e-24
0.37916      	2.274747e-24
0.380147     	-2.233388e-23
0.381134     	3.288043e-23
0.382123     	-8.892192e-24
0.383111     	-7.858216e-24
0.384102     	4.549493e-24
0.385092     	-1.716400e-23
0.386084     	-1.013296e-23
0.387077     	-7.651421e-24
0.38807      	-4.135903e-24
0.389065     	-3.515518e-24
0.390062     	1.799118e-23
0.391059     	3.515518e-24
0.392055     	-4.032505e-23
0.393052     	2.150670e-23
0.394049     	-1.385528e-23
0.395047     	3.308722e-24
0.396045     	3.639595e-23
0.397045     	-1.447566e-24
0.398045     	6.617445e-24
0.399047     	-1.840477e-23
0.400048     	-3.308722e-24
0.40105      	2.895132e-23
0.402051     	2.192029e-23
0.403055     	1.550964e-23
0.404058     	1.033976e-23
0.405061     	1.199412e-23
0.406066     	-7.031035e-24
0.407071     	-4.135903e-24
0.408076     	-2.895132e-24
0.409083     	-2.067952e-24
0.410091     	2.254067e-23
0.411099     	2.274747e-24
0.41211      	5.376674e-24
0.413121     	-1.199412e-23
0.414135     	-6.203855e-24
0.415147     	-2.150670e-23
0.416157     	-1.240771e-24
0.417165     	1.633682e-23
0.418172     	-1.778438e-23
0.419177     	9.098987e-24
0.42018      	5.583469e-24
0.421181     	-8.065011e-24
0.422183     	-1.282130e-23
0.423183     	0.000000e+00
0.424182     	9.926167e-24
0.42518      	2.192029e-23
0.426178     	1.426887e-23
0.427174     	2.481542e-24
0.428171     	3.722313e-24
0.429167     	-1.385528e-23
0.430163     	-5.583469e-24
0.431159     	2.067952e-25
0.432155     	-7.858216e-24
0.433152     	-1.468246e-23
0.434148     	-6.824240e-24
0.435144     	-5.169879e-24
0.43614      	5.583469e-24
0.437138     	-4.342698e-24
0.438136     	-5.997059e-24
0.439134     	-7.237830e-24
0.440134     	1.033976e-24
0.441134     	-5.583469e-24
0.442134     	-4.342698e-24
0.443135     	6.203855e-25
0.444137     	2.481542e-23
0.44514      	6.203855e-25
0.446143     	-8.271806e-24
0.447149     	-1.075335e-23
0.448154     	4.135903e-24
0.449159     	-1.799118e-23
0.450164     	-2.688337e-24
0.451171     	8.271806e-25
0.452178     	1.447566e-23
0.453185     	-3.308722e-24
0.454194     	5.169879e-25
0.455203     	6.720842e-24
0.456214     	9.512577e-24
0.457224     	-8.271806e-25
0.458237     	-5.169879e-24
0.45925      	3.101927e-24
0.460264     	-6.927638e-24
0.461281     	4.342698e-24
0.462297     	-1.127034e-23
0.463316     	-1.240771e-24
0.464336     	1.509605e-23
0.465356     	-6.100457e-24
0.466378     	2.895132e-24
0.467403     	-4.135903e-25
0.468429     	7.134433e-24
0.469455     	9.926167e-24
0.470483     	-1.168393e-23
0.471511     	-2.378144e-24
0.472542     	-6.410650e-24
0.473572     	-3.825710e-24
0.474602     	-8.788794e-24
0.475632     	2.274747e-24
0.476664     	5.893662e-24
0.477697     	-8.788794e-24
0.478729     	2.067952e-24
0.479763     	5.790264e-24
0.480797     	-5.686867e-24
0.481832     	4.135903e-25
0.482868     	1.261450e-23
0.483904     	-6.824240e-24
0.484943     	3.515518e-24
0.485981     	-8.271806e-25
0.487022     	4.652891e-24
0.488062     	-8.271806e-24
0.489105     	4.911385e-24
0.490148     	-9.822770e-25
0.491192     	7.806517e-24
0.492239     	3.101927e-25
0.493286     	1.499265e-24
0.494335     	5.997059e-24
0.495387     	4.135903e-25
0.496438     	-1.861156e-24
0.497491     	-2.378144e-24
0.498545     	-9.822770e-25
0.4996       	2.636638e-24
0.500656     	-1.747419e-23
0.501714     	-5.273276e-24
0.502772     	-3.412120e-24
0.50383      	8.065011e-24
0.504888     	1.127034e-23
0.505946     	-1.075335e-23
0.507006     	-1.757759e-24
0.508066     	-6.927638e-24
0.509126     	7.186132e-24
0.510189     	6.255553e-24
0.511251     	-9.822770e-24
0.512314     	1.057240e-23
0.513379     	1.571643e-23
0.514444     	-2.895132e-24
0.515511     	3.774012e-24
0.516578     	-5.454222e-24
0.517647     	6.410650e-24
0.518717     	1.783608e-24
0.519789     	2.145500e-24
0.520861     	-4.911385e-25
0.521935     	8.892192e-24
0.523009     	-6.979336e-25
0.524086     	-4.032505e-24
0.525163     	9.926167e-24
0.526242     	2.869283e-24
0.527321     	-1.408792e-24
0.528403     	-6.875939e-24
0.529484     	9.318707e-24
0.530569     	-1.499265e-24
0.531653     	1.156760e-23
0.532737     	-1.008126e-24
0.533821     	-8.452752e-24
0.534908     	3.179475e-24
0.535994     	-6.720842e-25
0.537081     	-3.683539e-24
0.538168     	6.520510e-24
0.539257     	7.812979e-24
0.540346     	3.134239e-24
0.541435     	-1.178086e-23
0.542527     	-1.059825e-24
0.543619     	-9.551351e-24
0.544711     	-8.730633e-24
0.545805     	-1.916409e-23
0.5469       	-3.660920e-24
0.547994     	-1.036561e-23
0.549091     	-7.774205e-24
0.550188     	1.388112e-23
0.551288     	-8.654700e-24
0.552388     	-1.284553e-23
0.553485     	-1.428664e-23
0.554579     	-1.348207e-23
0.555674     	-9.525502e-24
0.556765     	-3.038919e-24
0.557854     	-5.426757e-24
0.558944     	-6.593615e-25
0.56003      	4.887656e-24
0.561114     	4.164580e-24
0.562197     	2.833740e-24
0.563278     	-5.018418e-24
0.564359     	-1.991898e-23
0.565438     	-2.998530e-24
0.566516     	2.459731e-24
0.567591     	-4.154482e-24
0.568664     	-2.315136e-24
0.569737     	7.235003e-24
0.570808     	5.404139e-25
0.571875     	8.306945e-24
0.572943     	-2.031702e-24
0.574008     	-1.694912e-23
0.575073     	9.176686e-24
0.576138     	-8.139934e-24
0.5772       	8.344104e-24
0.578263     	1.342634e-23
0.579325     	-1.487148e-24
0.580387     	1.269044e-24
0.58145      	7.308108e-24
0.582512     	1.093752e-24
0.583574     	4.565649e-24
0.584636     	-2.465386e-24
0.585699     	-4.614117e-24
0.586758     	2.063105e-24
0.587818     	-8.294424e-24
0.588878     	-9.855082e-24
0.589937     	2.032409e-24
0.590997     	8.750020e-24
0.592054     	-1.312503e-23
0.59311      	1.133496e-23
0.594167     	-1.818505e-23
0.595221     	-7.454319e-24
0.596276     	7.851753e-24
0.59733      	2.106726e-24
0.598384     	-5.312050e-24
0.599438     	2.533241e-24
0.600489     	-4.268381e-24
0.601541     	2.517085e-24
0.602589     	-1.799764e-24
0.603638     	-5.228040e-24
0.604686     	-4.853224e-24
0.605735     	-5.703023e-24
0.606783     	-4.546262e-24
0.607832     	-1.523176e-23
0.608881     	-9.483496e-24
0.609929     	-1.547732e-24
0.610975     	-4.171446e-24
0.612021     	1.298932e-24
0.613066     	-8.132866e-24
0.614112     	-1.240125e-23
0.615158     	-3.231174e-27
0.616201     	4.227992e-24
0.617244     	-1.019274e-23
0.618287     	-9.409179e-24
0.61933      	3.969498e-24
0.620373     	-6.363798e-24
0.621413     	-1.423736e-23
0.622453     	7.011648e-25
0.62349      	-8.556149e-24
0.624527     	7.310532e-24
0.625564     	6.294327e-24
0.626599     	-1.113140e-23
0.627633     	1.011358e-24
0.628668     	-8.265344e-24
0.629702     	8.142559e-24
0.630736     	7.780668e-24
0.631771     	-8.323505e-24
0.632805     	-1.121217e-23
0.633836     	8.265344e-24
0.634868     	-8.504451e-24
0.635899     	-1.744834e-24
0.636931     	-6.268478e-24
0.637962     	6.953487e-24
0.638991     	-1.052070e-23
0.640019     	2.248897e-24
0.641048     	-1.083090e-23
0.642076     	3.127777e-24
0.643102     	7.380002e-24
0.644127     	-3.967882e-24
0.645153     	2.215293e-23
0.646176     	-4.782138e-24
0.647198     	-1.920610e-23
0.648218     	-5.195728e-24
0.649237     	-3.257024e-24
0.650254     	-2.471202e-23
0.651271     	1.550964e-25
0.652288     	1.008126e-23
0.653301     	1.233016e-23
0.654315     	-4.497795e-24
0.655329     	-1.734494e-23
0.656343     	7.935764e-24
0.657353     	7.199056e-24
0.658367     	4.239301e-24
0.659381     	-4.872611e-24
0.660392     	-5.932436e-24
0.661402     	-2.625006e-23
0.662413     	-8.132866e-24
0.663424     	-6.688531e-25
0.664434     	-1.381650e-23
0.665445     	8.905924e-25
0.666456     	-7.434932e-24
0.667467     	3.334572e-24
0.668477     	-3.799861e-24
0.669488     	-4.950159e-24
0.670499     	-1.305394e-24
0.67151      	-5.363749e-24
0.672517     	2.242435e-23
0.673525     	-3.257024e-24
0.674533     	1.923195e-23
0.67554      	7.548023e-24
0.676551     	-3.218250e-24
0.677562     	1.783608e-24
0.678573     	-1.247233e-23
0.679583     	-9.693523e-24
0.680594     	-8.116710e-24
0.681605     	-3.231174e-25
0.682616     	9.254083e-24
0.683623     	-1.390697e-23
0.684631     	3.980807e-24
0.685635     	5.609319e-24
0.68664      	-7.884065e-24
0.687644     	6.126306e-24
0.688645     	-1.072750e-23
0.689646     	1.912855e-24
0.690647     	-6.462349e-24
0.691648     	4.006656e-24
0.69265      	3.851560e-24
0.693651     	2.933906e-24
0.694652     	-1.137373e-24
0.69565      	8.995589e-24
0.696648     	-1.649191e-23
0.697645     	-8.814643e-24
0.698643     	8.556149e-24
0.699641     	-6.178005e-24
0.700639     	8.271806e-24
0.701637     	1.447566e-23
0.702635     	-9.564276e-25
0.703633     	-1.258865e-23
0.704631     	-4.394397e-25
0.705628     	3.463819e-24
0.706626     	1.333829e-23
0.707621     	-6.565746e-24
0.708615     	-2.067952e-25
0.70961      	-8.013312e-25
0.710608     	-1.044316e-23
0.711602     	9.512577e-24
0.712597     	-1.085675e-24
0.713591     	-1.015881e-23
0.714586     	1.783608e-24
0.71558      	3.825710e-24
0.716575     	-5.454222e-24
0.717569     	-1.331244e-23
0.718563     	-9.822770e-25
0.719558     	-8.375204e-24
0.720552     	-4.032505e-24
0.721547     	-1.370018e-24
0.722541     	-1.835307e-23
0.723536     	5.583469e-24
0.72453      	-1.680211e-24
0.725525     	-7.858216e-24
0.726519     	-6.850089e-24
0.727514     	1.178732e-23
0.728508     	-3.954957e-24
0.729503     	-7.237830e-24
0.730497     	5.738565e-24
0.731492     	6.048758e-24
0.732486     	-9.435029e-25
0.733481     	5.014782e-24
0.734475     	8.013312e-25
0.73547      	-1.044316e-23
0.736464     	-1.434641e-24
0.737459     	1.304102e-23
0.738457     	5.699791e-24
0.739455     	8.762945e-24
0.740453     	-1.189072e-23
0.741448     	-8.401053e-25
0.742442     	-1.121864e-23
0.74344      	-1.005541e-23
0.744439     	7.121508e-24
0.745437     	-5.725641e-24
0.746435     	4.862917e-24
0.747434     	1.835307e-24
0.748436     	-5.053557e-24
0.749438     	-5.132720e-24
0.75044      	5.385560e-24
0.751443     	7.165179e-24
0.752445     	-1.176572e-23
0.753447     	-1.775046e-23
0.754449     	-4.925925e-24
0.755456     	2.238800e-24
0.756462     	-3.176244e-24
0.757468     	-1.411215e-23
0.758475     	2.847472e-25
0.759481     	-6.793544e-24
0.760487     	8.594924e-24
0.761494     	-3.967882e-24
0.7625       	-5.728872e-24
0.763507     	-7.192594e-24
0.764517     	-2.463770e-24
0.765528     	-1.215487e-23
0.766543     	-8.271806e-24
0.767558     	-6.152156e-24
0.768577     	-5.887200e-24
0.769597     	-4.116516e-24
0.770621     	1.751296e-24
0.771645     	-1.092783e-23
0.772674     	9.305782e-25
0.773707     	8.013312e-25
0.77474      	7.496324e-24
0.775778     	-1.076627e-23
0.776821     	5.376674e-24
0.777869     	9.952017e-24
0.778922     	1.163223e-25
0.779974     	-1.809458e-25
0.781032     	4.691665e-24
0.782095     	7.922839e-24
0.783163     	9.745222e-24
0.784231     	1.081797e-23
0.785305     	5.105255e-24
0.786384     	-2.455692e-25
0.787463     	-8.258881e-24
0.788547     	-5.480072e-24
0.789637     	4.627042e-24
0.790727     	1.460491e-24
0.791823     	-3.269948e-24
0.792924     	2.623714e-24
0.794026     	-1.108939e-23
0.795127     	-3.580141e-24
0.796229     	-1.033976e-25
0.797336     	5.583469e-24
0.798443     	1.313149e-23
0.799551     	8.013312e-25
0.800658     	-4.963084e-24
0.801772     	-4.239301e-24
0.802886     	-6.798391e-24
0.803999     	-1.033976e-24
0.805119     	-8.801719e-24
0.806239     	-6.656219e-24
0.807359     	-2.998530e-24
0.808486     	1.024928e-23
0.809612     	1.550964e-25
0.810739     	3.502593e-24
0.811872     	-9.383330e-24
0.813006     	-2.145500e-24
0.814139     	-3.929108e-24
0.815272     	-8.452752e-24
0.816412     	5.428373e-25
0.817553     	-3.877409e-24
0.818693     	-3.929108e-24
0.819833     	-1.429471e-23
0.820981     	-1.147713e-23
0.822128     	-4.135903e-25
0.823276     	-1.305394e-23
0.824424     	9.822770e-25
0.825579     	9.822770e-25
0.826734     	4.213451e-24
0.827889     	-3.101927e-24
0.829036     	-2.946831e-24
0.830184     	-1.023636e-23
0.831331     	-7.367077e-24
0.832478     	-1.338999e-23
0.833626     	-1.033976e-25
0.834765     	1.809458e-25
0.835905     	3.515518e-24
0.837045     	-1.220091e-23
0.838184     	-3.386271e-24
0.839324     	-2.481542e-24
0.840463     	-8.685396e-24
0.841603     	-4.084204e-24
0.842742     	-6.203855e-24
0.843882     	1.861156e-24
0.845021     	2.145500e-23
0.846161     	-2.223048e-24
0.8473       	7.806517e-24
0.84844      	1.127034e-23
0.84958      	-1.809458e-24
0.850728     	-3.877409e-24
0.851876     	5.686867e-24
0.853024     	-8.116710e-24
0.854173     	-2.688337e-24
0.855321     	-1.519944e-23
0.856469     	3.774012e-24
0.857617     	2.171349e-24
0.858766     	4.963084e-24
0.859914     	-3.101927e-24
0.861062     	-2.584939e-25
0.86221      	2.378144e-24
0.863359     	-1.147713e-23
0.864517     	5.118180e-24
0.865675     	-7.031035e-24
0.866832     	-1.685380e-23
0.86799      	-4.963084e-24
0.869148     	9.615975e-24
0.870306     	2.171349e-23
0.871464     	5.169879e-24
0.872622     	8.788794e-24
0.87378      	-1.033976e-24
0.874938     	5.169879e-25
0.876107     	-6.203855e-25
0.877276     	-2.895132e-24
0.878445     	5.686867e-24
0.879614     	2.378144e-24
0.880782     	2.171349e-24
0.881951     	5.376674e-24
0.88312      	0.000000e+00
0.884289     	8.271806e-24
0.885458     	5.169879e-24
0.886626     	3.618915e-24
0.887807     	-3.101927e-25
0.888988     	-3.101927e-25
0.890169     	-4.342698e-24
0.89135      	-9.615975e-24
0.892531     	-8.685396e-24
0.893712     	-5.790264e-24
0.894893     	-4.549493e-24
0.896074     	-1.581983e-23
0.897255     	-6.307252e-24
0.898436     	8.375204e-24
0.899617     	5.997059e-24
0.900798     	-1.385528e-23
0.901979     	1.240771e-24
0.90316      	-2.998530e-24
0.904341     	-3.722313e-24
0.905522     	-7.548023e-24
0.906703     	-5.066481e-24
0.907884     	1.033976e-25
0.90908      	5.376674e-24
0.910277     	-8.375204e-24
0.911473     	7.754818e-24
0.912669     	-3.618915e-24
0.913865     	8.271806e-25
0.915062     	-1.344168e-24
0.916258     	-2.429843e-24
0.917454     	-1.111524e-23
0.918651     	4.135903e-25
0.919847     	-4.135903e-25
0.921043     	9.512577e-24
0.92224      	-1.359678e-23
0.923436     	3.412120e-24
0.924632     	3.101927e-24
0.925829     	1.783608e-23
0.927025     	-3.463819e-24
0.928221     	5.428373e-24
0.929418     	-1.013296e-23
0.930614     	1.452736e-23
0.93181      	-1.033976e-23
0.933006     	-4.135903e-24
0.934203     	-8.840493e-24
0.935399     	-1.545794e-23
0.936595     	1.706060e-24
0.937792     	5.841963e-24
0.938988     	7.392927e-24
0.940184     	5.428373e-24
0.941381     	-4.652891e-24
0.942577     	3.360421e-24
0.943773     	4.756289e-24
0.94497      	-4.652891e-24
0.946166     	-3.050229e-24
0.947362     	-9.564276e-24
0.948559     	-3.101927e-25
0.949755     	-1.033976e-25
0.950951     	4.342698e-24
0.952147     	6.358951e-24
0.953344     	1.002956e-23
0.95454      	8.271806e-25
0.955736     	-7.134433e-24
0.956933     	-1.964554e-24
0.958129     	-5.738565e-24
0.959325     	-1.178732e-23
0.960522     	2.636638e-24
0.961718     	8.788794e-24
0.962914     	5.118180e-24
0.964111     	-2.584939e-24
0.965307     	5.686867e-25
0.966503     	-4.652891e-24
0.9677       	-6.669144e-24
0.968896     	1.199412e-23
0.970092     	1.540624e-23
0.971288     	4.704590e-24
0.972485     	-3.101927e-24
0.973681     	-1.406207e-23
0.974877     	2.067952e-24
0.976074     	1.861156e-24
0.97727      	6.152156e-24
0.978466     	2.481542e-24
0.979663     	-7.186132e-24
0.980859     	2.429843e-23
0.982055     	-2.740036e-24
0.983252     	-9.615975e-24
0.984448     	-6.824240e-24
0.985644     	2.688337e-24
0.986841     	1.344168e-24
0.988037     	5.169879e-26
0.989233     	2.636638e-24
0.990429     	-3.877409e-24
0.991626     	-1.587153e-23
0.992822     	2.378144e-24
0.994018     	-7.909915e-24
0.995215     	-9.512577e-24
0.996411     	-5.092331e-24
0.997607     	-4.316849e-24
0.998804     	5.350825e-24
1            	-1.421717e-23
1.00121      	7.341228e-24
1.00241      	-5.945361e-24
1.00361      	8.918041e-24
1.00482      	1.478585e-23
1.00602      	1.225261e-23
1.00722      	4.316849e-24
1.00841      	1.569058e-23
1.00961      	9.874469e-24
1.0108       	4.678740e-24
1.012        	-6.048758e-24
1.01319      	-6.410650e-24
1.01438      	6.462349e-25
1.01557      	1.711230e-23
1.01675      	4.627042e-24
1.01794      	-5.699791e-24
1.01912      	5.841963e-24
1.0203       	7.496324e-25
1.02148      	-3.618915e-25
1.02266      	-4.110054e-24
1.02384      	-1.579398e-23
1.02501      	-1.363556e-23
1.02618      	-1.001664e-23
1.02736      	3.231174e-25
1.02852      	5.470378e-24
1.02969      	7.833982e-24
1.03085      	-4.014734e-25
1.03201      	1.037207e-23
1.03317      	-4.833837e-24
1.03433      	-1.404915e-23
1.03549      	8.530300e-25
1.03664      	-4.911385e-24
1.03779      	-1.120571e-23
1.03894      	1.426240e-23
1.04009      	2.481542e-24
1.04123      	1.276960e-23
1.04237      	4.290999e-24
1.04351      	4.730439e-24
1.04465      	1.331244e-24
1.04578      	-1.777146e-23
1.04692      	-1.866326e-23
1.04805      	-1.861156e-24
1.04918      	-1.077920e-23
1.0503       	-1.401037e-23
1.05143      	7.780668e-24
1.05255      	4.135903e-25
1.05367      	-7.160282e-24
1.05479      	-1.819797e-23
1.05591      	5.816114e-24
1.05702      	-1.331244e-23
1.05814      	1.214922e-24
1.05925      	-1.225261e-23
1.06036      	5.945361e-24
1.06146      	-6.074608e-24
1.06256      	-1.225261e-23
1.06367      	1.419132e-23
1.06477      	3.437969e-24
1.06586      	2.584939e-26
1.06696      	-7.651421e-24
1.06805      	-1.447566e-24
1.06915      	6.384800e-24
1.07024      	-1.602662e-24
1.07133      	1.737079e-23
1.07242      	2.161009e-23
1.0735       	-1.923195e-23
1.07459      	-3.437969e-24
1.07567      	-3.360421e-24
1.07676      	2.584939e-25
1.07784      	-6.824240e-24
1.07892      	-6.048758e-24
1.08         	-1.039146e-23
1.08108      	-1.225261e-23
1.08216      	-4.756289e-24
1.08323      	-3.980807e-24
1.08431      	5.324975e-24
1.08538      	-4.807987e-24
1.08645      	-1.292470e-24
1.08753      	-2.274747e-24
1.0886       	4.239301e-24
1.08967      	4.652891e-25
1.09074      	5.169879e-25
1.0918       	1.085675e-24
1.09287      	2.466032e-23
1.09394      	3.065738e-23
1.095        	-1.587153e-23
1.09607      	3.101927e-24
1.09713      	1.416547e-23
1.0982       	-2.031762e-23
1.09926      	-1.240771e-23
1.10032      	5.169879e-25
1.10138      	-1.483755e-23
1.10244      	6.824240e-24
1.10349      	-3.205325e-24
1.10455      	3.618915e-24
1.1056       	-1.561303e-23
1.10666      	-7.444626e-24
1.10771      	-1.442396e-23
1.10877      	-1.809458e-23
1.10982      	-8.013312e-24
1.11087      	8.168409e-24
1.11192      	-2.119650e-24
1.11297      	-2.238558e-23
1.11402      	-1.411377e-23
1.11507      	7.392927e-24
1.11611      	-1.127034e-23
1.11716      	-4.187602e-24
1.11821      	-3.308722e-24
1.11926      	5.997059e-24
1.1203       	4.807987e-24
1.12135      	8.271806e-25
1.1224       	-1.070165e-23
1.12344      	5.169879e-26
1.12448      	3.257024e-24
1.12553      	1.447566e-24
1.12657      	1.059825e-23
1.12761      	-1.773268e-23
1.12865      	-1.884421e-23
1.1297       	-2.199783e-23
1.13074      	1.204582e-23
1.13178      	-8.530300e-25
1.13282      	7.651421e-24
1.13386      	-4.084204e-24
1.13489      	1.395867e-24
1.13593      	5.738565e-24
1.13697      	-3.954957e-24
1.13801      	2.843433e-24
1.13904      	-1.251111e-23
1.14008      	1.773268e-23
1.14111      	-2.634053e-23
1.14214      	-5.195728e-24
1.14317      	1.930950e-23
1.1442       	-1.538039e-23
1.14523      	2.197199e-24
1.14626      	2.093801e-24
1.14729      	9.822770e-25
1.14832      	-1.558718e-23
1.14935      	-5.583469e-24
1.15038      	-1.320904e-23
1.15141      	-1.809458e-23
1.15244      	-1.646606e-23
1.15347      	-9.073137e-24
1.15449      	3.929108e-24
1.15552      	1.163223e-23
1.15654      	2.998530e-24
1.15757      	2.665073e-23
1.1586       	1.563888e-24
1.15962      	-1.945167e-23
1.16065      	-1.218799e-23
1.16168      	-1.456613e-23
1.16271      	1.254988e-23
1.16373      	-7.922839e-24
1.16476      	-1.947752e-23
1.16579      	7.082734e-24
1.16681      	-1.531577e-23
1.16784      	9.098987e-24
1.16887      	1.052070e-23
1.1699       	-1.190365e-23
1.17092      	-1.565181e-23
1.17195      	-1.668578e-23
1.17298      	1.313149e-23
1.17401      	8.478601e-24
1.17503      	1.166454e-23
1.17606      	8.659547e-25
1.17708      	-1.466953e-24
1.17811      	-2.203661e-24
1.17914      	-5.699791e-24
1.18016      	-2.946831e-24
1.18119      	9.758146e-25
1.18222      	1.204582e-23
1.18325      	-3.182707e-24
1.18427      	1.004249e-23
1.1853       	1.779408e-23
1.18633      	-1.352570e-23
1.18735      	1.012973e-23
1.18838      	-1.083736e-23