# Region type : patch bottom
# Faces  :   1000
# Area   :   6.239977e-01
# Time       	sumDirection(phi)
0.0119048    	0.000000e+00
0.0133951    	3.842406e-06
0.0148787    	3.175913e-07
0.0163646    	1.551602e-07
0.0178527    	9.023275e-08
0.0193408    	7.863062e-08
0.0208289    	7.165337e-08
0.0223147    	6.725071e-08
0.0238006    	6.426569e-08
0.0252842    	6.212689e-08
0.0267655    	6.049339e-08
0.0282468    	5.925739e-08
0.0297259    	5.831147e-08
0.031205     	5.758346e-08
0.032684     	5.704243e-08
0.0341631    	5.657805e-08
0.0356422    	5.622227e-08
0.037119     	5.606722e-08
0.0385958    	5.591687e-08
0.0400726    	5.584515e-08
0.0415494    	5.584282e-08
0.0430263    	5.580217e-08
0.0445031    	5.579343e-08
0.0459776    	5.577249e-08
0.0474521    	5.578716e-08
0.0489244    	5.585136e-08
0.0503966    	5.589897e-08
0.0518666    	5.595162e-08
0.0533366    	5.603956e-08
0.0548043    	5.605109e-08
0.0562697    	5.609481e-08
0.0577351    	5.613925e-08
0.0591983    	5.621988e-08
0.0606614    	5.634730e-08
0.0621223    	5.648829e-08
0.0635831    	5.655038e-08
0.0650417    	5.655555e-08
0.0665003    	5.659792e-08
0.0679566    	5.663994e-08
0.069413     	5.668078e-08
0.0708693    	5.670806e-08
0.0723233    	5.671631e-08
0.0737774    	5.675807e-08
0.0752314    	5.677905e-08
0.0766832    	5.679831e-08
0.0781349    	5.682914e-08
0.0795844    	5.683963e-08
0.0810339    	5.684852e-08
0.082481     	5.686913e-08
0.083926     	5.689441e-08
0.0853709    	5.692356e-08
0.0868135    	5.696260e-08
0.0882539    	5.688078e-08
0.0896919    	5.679510e-08
0.0911278    	5.677046e-08
0.0925636    	5.674955e-08
0.0939971    	5.672500e-08
0.0954284    	5.672204e-08
0.0968574    	5.671822e-08
0.0982842    	5.669778e-08
0.0997087    	5.670909e-08
0.101133     	5.673399e-08
0.102555     	5.676503e-08
0.103975     	5.680409e-08
0.105393     	5.688044e-08
0.106811     	5.694814e-08
0.108227     	5.702453e-08
0.10964      	5.711935e-08
0.111051     	5.719219e-08
0.11246      	5.728747e-08
0.113868     	5.737340e-08
0.115275     	5.746850e-08
0.116679     	5.756419e-08
0.118081     	5.767509e-08
0.119481     	5.776044e-08
0.120879     	5.788543e-08
0.122274     	5.800326e-08
0.123668     	5.811412e-08
0.125059     	5.822353e-08
0.126447     	5.832585e-08
0.127834     	5.842636e-08
0.129218     	5.853072e-08
0.130603     	5.863640e-08
0.131985     	5.875282e-08
0.133365     	5.888354e-08
0.134743     	5.900244e-08
0.136118     	5.912437e-08
0.137492     	5.925263e-08
0.138865     	5.936866e-08
0.140236     	5.948650e-08
0.141605     	5.962949e-08
0.142972     	5.977925e-08
0.144339     	5.991832e-08
0.145704     	6.005307e-08
0.147066     	6.018438e-08
0.148429     	6.032623e-08
0.149789     	6.046358e-08
0.151147     	6.057620e-08
0.152506     	6.070530e-08
0.153862     	6.084943e-08
0.155215     	6.099655e-08
0.156567     	6.116607e-08
0.157917     	6.133351e-08
0.159266     	6.150813e-08
0.160613     	6.166381e-08
0.161959     	6.186513e-08
0.163304     	6.205314e-08
0.164647     	6.223880e-08
0.165988     	6.243693e-08
0.167328     	6.263104e-08
0.168667     	6.281183e-08
0.170004     	6.300556e-08
0.17134      	6.320504e-08
0.172675     	6.339361e-08
0.174009     	6.359725e-08
0.175341     	6.382450e-08
0.176673     	6.402996e-08
0.178004     	6.422407e-08
0.179334     	6.442742e-08
0.180662     	6.462133e-08
0.18199      	6.481160e-08
0.183315     	6.500171e-08
0.184641     	6.520432e-08
0.185965     	6.539705e-08
0.187288     	6.559673e-08
0.188612     	6.579572e-08
0.189934     	6.600037e-08
0.191255     	6.619548e-08
0.192574     	6.638165e-08
0.193894     	6.656746e-08
0.195211     	6.673936e-08
0.196528     	6.691462e-08
0.197845     	6.707828e-08
0.19916      	6.722885e-08
0.200475     	6.736644e-08
0.201788     	6.752006e-08
0.203101     	6.765646e-08
0.204414     	6.777377e-08
0.205727     	6.790574e-08
0.207037     	6.803042e-08
0.208348     	6.816005e-08
0.209659     	6.828618e-08
0.210969     	6.840664e-08
0.212278     	6.853079e-08
0.213586     	6.865652e-08
0.214895     	6.878526e-08
0.216203     	6.885025e-08
0.217512     	6.894564e-08
0.21882      	6.899752e-08
0.220129     	6.908793e-08
0.221437     	6.918713e-08
0.222746     	6.928494e-08
0.224054     	6.937596e-08
0.225363     	6.946439e-08
0.226671     	6.955443e-08
0.22798      	6.964087e-08
0.229288     	6.973555e-08
0.230595     	6.980642e-08
0.231901     	6.988432e-08
0.233205     	6.996191e-08
0.234509     	7.003580e-08
0.235811     	7.009638e-08
0.237113     	7.014416e-08
0.238412     	7.019102e-08
0.239712     	7.023154e-08
0.24101      	7.025966e-08
0.242307     	7.032766e-08
0.243602     	7.037749e-08
0.244897     	7.043884e-08
0.24619      	7.050579e-08
0.247483     	7.056804e-08
0.248776     	7.065264e-08
0.250067     	7.071595e-08
0.251358     	7.080086e-08
0.252646     	7.088676e-08
0.253933     	7.098167e-08
0.255219     	7.108765e-08
0.256503     	7.119037e-08
0.257785     	7.128123e-08
0.259067     	7.138143e-08
0.260347     	7.147829e-08
0.261626     	7.162997e-08
0.262904     	7.175572e-08
0.264181     	7.179499e-08
0.265456     	7.182836e-08
0.266729     	7.192527e-08
0.268        	7.206731e-08
0.269269     	7.214796e-08
0.270538     	7.222220e-08
0.271804     	7.224657e-08
0.273068     	7.244607e-08
0.274332     	7.264592e-08
0.275594     	7.286400e-08
0.276857     	7.310636e-08
0.278116     	7.335125e-08
0.279376     	7.360189e-08
0.280636     	7.381233e-08
0.281896     	7.398252e-08
0.283153     	7.416333e-08
0.284411     	7.432781e-08
0.285667     	7.452432e-08
0.28692      	7.474837e-08
0.288173     	7.501688e-08
0.289426     	7.527065e-08
0.290679     	7.558832e-08
0.291933     	7.584115e-08
0.293179     	7.613662e-08
0.294419     	7.644317e-08
0.295653     	7.681686e-08
0.29688      	7.711392e-08
0.298101     	7.734726e-08
0.299315     	7.747554e-08
0.300523     	7.771346e-08
0.301725     	7.805328e-08
0.302921     	7.836745e-08
0.30411      	7.865173e-08
0.305294     	7.895869e-08
0.306471     	7.927307e-08
0.307643     	7.960713e-08
0.308808     	7.993125e-08
0.30997      	8.020961e-08
0.311126     	8.048304e-08
0.312278     	8.072137e-08
0.313424     	8.093784e-08
0.314566     	8.119311e-08
0.315705     	8.143430e-08
0.31684      	8.169489e-08
0.317971     	8.190897e-08
0.319098     	8.213228e-08
0.320222     	8.232589e-08
0.321341     	8.261347e-08
0.32246      	8.287921e-08
0.323574     	8.319165e-08
0.324686     	8.353629e-08
0.325797     	8.386678e-08
0.326906     	8.421940e-08
0.328013     	8.450199e-08
0.329118     	8.477863e-08
0.330224     	8.505160e-08
0.331327     	8.536290e-08
0.33243      	8.562924e-08
0.333534     	8.589520e-08
0.334637     	8.615196e-08
0.335739     	8.641024e-08
0.336839     	8.663332e-08
0.337937     	8.680578e-08
0.339033     	8.695437e-08
0.340127     	8.709584e-08
0.341221     	8.723452e-08
0.342314     	8.742856e-08
0.343406     	8.757623e-08
0.344497     	8.777065e-08
0.345588     	8.793727e-08
0.346678     	8.807200e-08
0.347769     	8.819019e-08
0.34886      	8.830673e-08
0.34995      	8.836524e-08
0.351043     	8.847166e-08
0.352135     	8.858010e-08
0.35323      	8.868515e-08
0.354322     	8.874301e-08
0.355415     	8.884891e-08
0.356506     	8.894094e-08
0.357596     	8.898305e-08
0.358687     	8.905156e-08
0.359778     	8.915966e-08
0.360868     	8.924078e-08
0.361961     	8.923127e-08
0.363051     	8.911726e-08
0.364142     	8.903421e-08
0.365233     	8.907857e-08
0.366322     	8.915009e-08
0.36741      	8.918852e-08
0.368501     	8.932197e-08
0.369592     	8.936352e-08
0.370682     	8.940322e-08
0.371775     	8.934854e-08
0.372868     	8.930513e-08
0.373962     	8.924404e-08
0.375058     	8.924331e-08
0.376155     	8.923400e-08
0.377253     	8.924378e-08
0.378351     	8.925757e-08
0.37945      	8.921625e-08
0.380548     	8.915895e-08
0.381646     	8.910864e-08
0.382745     	8.900870e-08
0.383845     	8.894510e-08
0.384945     	8.890735e-08
0.386047     	8.885538e-08
0.38715      	8.879430e-08
0.388254     	8.875494e-08
0.389358     	8.868852e-08
0.390464     	8.862628e-08
0.391571     	8.850488e-08
0.392677     	8.847174e-08
0.393783     	8.848028e-08
0.394891     	8.837336e-08
0.396        	8.833423e-08
0.39711      	8.832232e-08
0.39822      	8.824794e-08
0.399333     	8.813629e-08
0.400447     	8.806526e-08
0.401561     	8.796444e-08
0.402678     	8.778740e-08
0.403796     	8.762732e-08
0.404917     	8.749416e-08
0.406038     	8.737847e-08
0.407161     	8.730499e-08
0.408283     	8.724597e-08
0.409406     	8.712146e-08
0.410529     	8.706688e-08
0.411654     	8.697726e-08
0.412779     	8.684000e-08
0.413906     	8.678918e-08
0.415033     	8.670056e-08
0.416162     	8.659156e-08
0.417292     	8.645842e-08
0.418423     	8.631495e-08
0.419555     	8.616889e-08
0.420688     	8.605031e-08
0.421822     	8.590651e-08
0.422956     	8.574466e-08
0.424089     	8.557525e-08
0.425223     	8.534254e-08
0.426359     	8.520994e-08
0.427495     	8.503202e-08
0.428631     	8.488603e-08
0.429769     	8.472328e-08
0.430907     	8.456371e-08
0.432048     	8.442379e-08
0.433188     	8.430405e-08
0.434331     	8.416433e-08
0.435474     	8.401547e-08
0.436619     	8.391035e-08
0.437764     	8.376415e-08
0.438911     	8.363599e-08
0.440059     	8.347778e-08
0.441208     	8.328881e-08
0.442358     	8.309876e-08
0.443508     	8.293973e-08
0.444658     	8.276647e-08
0.44581      	8.262619e-08
0.446962     	8.251456e-08
0.448114     	8.237513e-08
0.449269     	8.221724e-08
0.450423     	8.205714e-08
0.451578     	8.191395e-08
0.452733     	8.177677e-08
0.453887     	8.160125e-08
0.455042     	8.144627e-08
0.456196     	8.130790e-08
0.457353     	8.117752e-08
0.45851      	8.104918e-08
0.459667     	8.091809e-08
0.460827     	8.078452e-08
0.461986     	8.065284e-08
0.463148     	8.055572e-08
0.46431      	8.044167e-08
0.465475     	8.031085e-08
0.46664      	8.017364e-08
0.467802     	8.004232e-08
0.468961     	7.988987e-08
0.470118     	7.976552e-08
0.471275     	7.967473e-08
0.472429     	7.960748e-08
0.473581     	7.952244e-08
0.474733     	7.941583e-08
0.475882     	7.930961e-08
0.477032     	7.924098e-08
0.478179     	7.912524e-08
0.479326     	7.903244e-08
0.48047      	7.894219e-08
0.481614     	7.887521e-08
0.482759     	7.873390e-08
0.483903     	7.861456e-08
0.485047     	7.847767e-08
0.486192     	7.839072e-08
0.487336     	7.834305e-08
0.48848      	7.825435e-08
0.489625     	7.818439e-08
0.490769     	7.808240e-08
0.491913     	7.800167e-08
0.49306      	7.788254e-08
0.494207     	7.773949e-08
0.495354     	7.764862e-08
0.496504     	7.753586e-08
0.497653     	7.744773e-08
0.498805     	7.738989e-08
0.499958     	7.733697e-08
0.501112     	7.725657e-08
0.502267     	7.714296e-08
0.503425     	7.708402e-08
0.504582     	7.698015e-08
0.505742     	7.686479e-08
0.506903     	7.679693e-08
0.508063     	7.673355e-08
0.509223     	7.668083e-08
0.510386     	7.660841e-08
0.511549     	7.655176e-08
0.512715     	7.647828e-08
0.513881     	7.635326e-08
0.515046     	7.627371e-08
0.516215     	7.620721e-08
0.517383     	7.614448e-08
0.518555     	7.610076e-08
0.519726     	7.605267e-08
0.520901     	7.598374e-08
0.522075     	7.588764e-08
0.523252     	7.582400e-08
0.524429     	7.576394e-08
0.525606     	7.570449e-08
0.526786     	7.566992e-08
0.527966     	7.564326e-08
0.529149     	7.563998e-08
0.530333     	7.559809e-08
0.531519     	7.557869e-08
0.532705     	7.552981e-08
0.533894     	7.551636e-08
0.535083     	7.550884e-08
0.536275     	7.548943e-08
0.537467     	7.544837e-08
0.538659     	7.540371e-08
0.539854     	7.537486e-08
0.541049     	7.532521e-08
0.542244     	7.533098e-08
0.543443     	7.531130e-08
0.544641     	7.527333e-08
0.545839     	7.529189e-08
0.547041     	7.529158e-08
0.548242     	7.523612e-08
0.549447     	7.519112e-08
0.550652     	7.516619e-08
0.551856     	7.518411e-08
0.553064     	7.519063e-08
0.554272     	7.515495e-08
0.55548      	7.515211e-08
0.556691     	7.512906e-08
0.557903     	7.509197e-08
0.559114     	7.501309e-08
0.560329     	7.498301e-08
0.561543     	7.495006e-08
0.562761     	7.494944e-08
0.563979     	7.492037e-08
0.5652       	7.488673e-08
0.566422     	7.484353e-08
0.567646     	7.481911e-08
0.568871     	7.482065e-08
0.570096     	7.479275e-08
0.571321     	7.476608e-08
0.572549     	7.474254e-08
0.573777     	7.470699e-08
0.575006     	7.467077e-08
0.576238     	7.465761e-08
0.577469     	7.468775e-08
0.578701     	7.469114e-08
0.579937     	7.466348e-08
0.581172     	7.464366e-08
0.582408     	7.465341e-08
0.583647     	7.461557e-08
0.584886     	7.465893e-08
0.586125     	7.467439e-08
0.587368     	7.465166e-08
0.588611     	7.462808e-08
0.589854     	7.462152e-08
0.5911       	7.463984e-08
0.592347     	7.462026e-08
0.593594     	7.463992e-08
0.594844     	7.467994e-08
0.596095     	7.468123e-08
0.597349     	7.466756e-08
0.598603     	7.470602e-08
0.599858     	7.475941e-08
0.601116     	7.481359e-08
0.602374     	7.486403e-08
0.603633     	7.491493e-08
0.604895     	7.501811e-08
0.606157     	7.506400e-08
0.60742      	7.505312e-08
0.608682     	7.513489e-08
0.609948     	7.525247e-08
0.611215     	7.532711e-08
0.612481     	7.544350e-08
0.613752     	7.552754e-08
0.615022     	7.562546e-08
0.616293     	7.576179e-08
0.617559     	7.585193e-08
0.618821     	7.592356e-08
0.620084     	7.598304e-08
0.621342     	7.605526e-08
0.622595     	7.620043e-08
0.623849     	7.634624e-08
0.625099     	7.647913e-08
0.626349     	7.668759e-08
0.627594     	7.686237e-08
0.62884      	7.699341e-08
0.630081     	7.707617e-08
0.631322     	7.713516e-08
0.632559     	7.724995e-08
0.633797     	7.740174e-08
0.635034     	7.752875e-08
0.636267     	7.766710e-08
0.6375       	7.779437e-08
0.638733     	7.790667e-08
0.639962     	7.803492e-08
0.64119      	7.818381e-08
0.642415     	7.824326e-08
0.64364      	7.832085e-08
0.64486      	7.846424e-08
0.64608      	7.858996e-08
0.647301     	7.869968e-08
0.648517     	7.879256e-08
0.649733     	7.889695e-08
0.650949     	7.902948e-08
0.652166     	7.914945e-08
0.653382     	7.924221e-08
0.654598     	7.935771e-08
0.655814     	7.946548e-08
0.65703      	7.952736e-08
0.658247     	7.966730e-08
0.659463     	7.983784e-08
0.660675     	7.994831e-08
0.661887     	8.004709e-08
0.663099     	8.012715e-08
0.66431      	8.018151e-08
0.665522     	8.027596e-08
0.66673      	8.034883e-08
0.667937     	8.041957e-08
0.669145     	8.052169e-08
0.670352     	8.061690e-08
0.671555     	8.071960e-08
0.672758     	8.083543e-08
0.673962     	8.091348e-08
0.675165     	8.100140e-08
0.676368     	8.110586e-08
0.677571     	8.122014e-08
0.678774     	8.129114e-08
0.679977     	8.132746e-08
0.681176     	8.137398e-08
0.682374     	8.142514e-08
0.683573     	8.151755e-08
0.684771     	8.160028e-08
0.68597      	8.171792e-08
0.687169     	8.179880e-08
0.688367     	8.189876e-08
0.689566     	8.202011e-08
0.690764     	8.201743e-08
0.691963     	8.206170e-08
0.693161     	8.208044e-08
0.694355     	8.211923e-08
0.695549     	8.221346e-08
0.696743     	8.229618e-08
0.697932     	8.236584e-08
0.699122     	8.252108e-08
0.700311     	8.287141e-08
0.7015       	8.339614e-08
0.702689     	8.400367e-08
0.703879     	8.451683e-08
0.705068     	8.531071e-08
0.706257     	8.617732e-08
0.707442     	8.670525e-08
0.708626     	8.637262e-08
0.709811     	8.618956e-08
0.710995     	8.648285e-08
0.712179     	8.706313e-08
0.713364     	8.769412e-08
0.714548     	8.807444e-08
0.715733     	8.870015e-08
0.716917     	8.908239e-08
0.718097     	8.877498e-08
0.719276     	8.798508e-08
0.720456     	8.752946e-08
0.72163      	8.717144e-08
0.722805     	8.770486e-08
0.723979     	8.892825e-08
0.725154     	8.976175e-08
0.726329     	8.883294e-08
0.727503     	8.821892e-08
0.728678     	8.784219e-08
0.729847     	8.756647e-08
0.731017     	8.739502e-08
0.732181     	8.726225e-08
0.733345     	8.715657e-08
0.73451      	8.714022e-08
0.735674     	8.719923e-08
0.736839     	8.754527e-08
0.738003     	8.810379e-08
0.739168     	8.870730e-08
0.740327     	8.907988e-08
0.741486     	8.870524e-08
0.742645     	8.848120e-08
0.743805     	8.835352e-08
0.744959     	8.833487e-08
0.746113     	8.836527e-08
0.747272     	8.842443e-08
0.748431     	8.894039e-08
0.749591     	8.956825e-08
0.75075      	8.985204e-08
0.751909     	8.942738e-08
0.753069     	8.919514e-08
0.754222     	8.908399e-08
0.755376     	8.895520e-08
0.75653      	8.889602e-08
0.757684     	8.885943e-08
0.758838     	8.882940e-08
0.759992     	8.883405e-08
0.761146     	8.882519e-08
0.762294     	8.882410e-08
0.763442     	8.885761e-08
0.764591     	8.887342e-08
0.765734     	8.890457e-08
0.766876     	8.893768e-08
0.768019     	8.896888e-08
0.769156     	8.901644e-08
0.770293     	8.910394e-08
0.771431     	8.929841e-08
0.772568     	8.960172e-08
0.773705     	9.002990e-08
0.774842     	9.051903e-08
0.775979     	9.098648e-08
0.777116     	9.117626e-08
0.778253     	9.105956e-08
0.779391     	9.095639e-08
0.780528     	9.086109e-08
0.781665     	9.065220e-08
0.782802     	9.056539e-08
0.783939     	9.045128e-08
0.785076     	9.056165e-08
0.786214     	9.095786e-08
0.787345     	9.153398e-08
0.788476     	9.175043e-08
0.789607     	9.122646e-08
0.790738     	9.182533e-08
0.791869     	9.144959e-08
0.793        	9.117498e-08
0.794132     	9.062493e-08
0.795263     	9.019324e-08
0.796394     	8.985719e-08
0.797525     	8.960442e-08
0.798656     	8.926198e-08
0.799787     	8.900206e-08
0.800919     	8.881080e-08
0.80205      	8.865970e-08
0.803181     	8.848018e-08
0.804312     	8.834795e-08
0.805443     	8.836800e-08
0.806574     	8.838584e-08
0.807705     	8.839641e-08
0.808837     	8.836227e-08
0.809968     	8.833684e-08
0.811099     	8.827422e-08
0.81223      	8.847112e-08
0.813361     	8.879137e-08
0.814492     	8.862388e-08
0.815623     	8.843560e-08
0.816755     	8.841317e-08
0.817886     	8.837782e-08
0.819017     	8.830669e-08
0.820148     	8.819838e-08
0.821279     	8.809970e-08
0.82241      	8.804656e-08
0.823541     	8.801537e-08
0.824673     	8.800654e-08
0.825804     	8.797921e-08
0.826935     	8.795907e-08
0.828066     	8.788300e-08
0.829197     	8.782600e-08
0.830328     	8.774633e-08
0.831467     	8.760769e-08
0.832606     	8.748228e-08
0.833744     	8.735751e-08
0.834883     	8.722977e-08
0.836022     	8.712608e-08
0.837161     	8.704358e-08
0.838299     	8.697601e-08
0.839438     	8.680241e-08
0.840577     	8.665235e-08
0.841716     	8.652893e-08
0.842854     	8.642730e-08
0.843993     	8.631491e-08
0.845132     	8.627327e-08
0.846271     	8.623877e-08
0.847418     	8.607662e-08
0.848565     	8.609038e-08
0.849712     	8.623115e-08
0.85086      	8.655784e-08
0.852007     	8.728725e-08
0.853154     	8.796019e-08
0.854301     	8.825196e-08
0.855448     	8.808432e-08
0.856605     	8.769268e-08
0.857761     	8.755037e-08
0.858918     	8.793084e-08
0.860074     	8.859928e-08
0.86124      	8.892859e-08
0.862406     	8.923862e-08
0.863582     	8.900657e-08
0.864758     	8.903866e-08
0.865934     	8.920960e-08
0.867121     	8.867211e-08
0.868307     	8.853472e-08
0.869504     	8.889187e-08
0.870702     	8.938248e-08
0.871899     	8.929797e-08
0.873107     	8.830147e-08
0.874316     	8.750898e-08
0.875536     	8.697442e-08
0.876756     	8.655961e-08
0.877989     	8.628847e-08
0.879221     	8.605934e-08
0.880454     	8.590115e-08
0.881699     	8.567154e-08
0.882944     	8.547111e-08
0.884189     	8.531781e-08
0.885435     	8.520551e-08
0.886694     	8.515675e-08
0.887953     	8.510494e-08
0.889211     	8.531463e-08
0.89047      	8.564724e-08
0.891729     	8.593239e-08
0.892988     	8.580063e-08
0.894262     	8.585847e-08
0.895536     	8.611360e-08
0.89681      	8.642846e-08
0.898084     	8.638907e-08
0.899358     	8.612566e-08
0.900632     	8.597770e-08
0.901906     	8.573732e-08
0.90318      	8.535063e-08
0.904471     	8.501964e-08
0.905762     	8.473983e-08
0.907053     	8.453835e-08
0.908344     	8.432954e-08
0.909635     	8.417152e-08
0.910926     	8.404052e-08
0.912216     	8.394990e-08
0.913527     	8.386074e-08
0.914837     	8.374761e-08
0.916147     	8.368077e-08
0.917457     	8.360798e-08
0.918747     	8.351564e-08
0.920037     	8.346598e-08
0.921326     	8.345100e-08
0.922616     	8.328101e-08
0.923906     	8.309633e-08
0.925196     	8.294401e-08
0.926485     	8.282001e-08
0.927775     	8.262301e-08
0.929065     	8.248258e-08
0.930355     	8.234471e-08
0.931644     	8.223502e-08
0.932934     	8.217687e-08
0.934224     	8.214852e-08
0.935514     	8.209948e-08
0.936778     	8.201758e-08
0.938042     	8.192089e-08
0.939307     	8.181269e-08
0.940571     	8.172521e-08
0.941836     	8.162304e-08
0.9431       	8.154816e-08
0.944365     	8.143169e-08
0.945629     	8.139274e-08
0.946893     	8.138688e-08
0.948158     	8.152348e-08
0.949422     	8.166726e-08
0.950687     	8.175840e-08
0.951951     	8.150538e-08
0.953216     	8.138237e-08
0.95448      	8.125834e-08
0.955745     	8.111549e-08
0.957009     	8.106072e-08
0.958273     	8.104091e-08
0.959538     	8.112981e-08
0.960802     	8.112649e-08
0.962067     	8.090287e-08
0.963331     	8.079029e-08
0.964596     	8.064083e-08
0.96586      	8.040669e-08
0.967125     	8.020836e-08
0.968389     	8.005271e-08
0.969653     	7.990024e-08
0.970918     	7.971585e-08
0.972182     	7.960615e-08
0.973447     	7.949482e-08
0.974711     	7.944008e-08
0.975976     	7.941105e-08
0.97724      	7.935435e-08
0.978505     	7.930222e-08
0.979769     	7.925079e-08
0.981033     	7.923139e-08
0.982298     	7.920978e-08
0.983562     	7.916383e-08
0.984827     	7.912445e-08
0.986091     	7.911147e-08
0.987356     	7.905396e-08
0.98862      	7.906732e-08
0.989884     	7.907491e-08
0.991149     	7.906594e-08
0.992413     	7.914185e-08
0.993678     	7.939428e-08
0.994942     	7.983172e-08
0.996207     	8.023605e-08
0.997471     	8.025795e-08
0.998736     	7.990426e-08
1            	7.967164e-08
1.00134      	7.945961e-08
1.00267      	7.918928e-08
1.00401      	7.909809e-08
1.00535      	7.903126e-08
1.00669      	7.887008e-08
1.00802      	7.871921e-08
1.00937      	7.859515e-08
1.01071      	7.847564e-08
1.01205      	7.843731e-08
1.01339      	7.844611e-08
1.01473      	7.842601e-08
1.01608      	7.841972e-08
1.01743      	7.840312e-08
1.01878      	7.835225e-08
1.02013      	7.835085e-08
1.02148      	7.836781e-08
1.02283      	7.837157e-08
1.02418      	7.837284e-08
1.02553      	7.838786e-08
1.02688      	7.842720e-08
1.02824      	7.847120e-08
1.02959      	7.848843e-08
1.03095      	7.852106e-08
1.0323       	7.855164e-08
1.03366      	7.859315e-08
1.03501      	7.864169e-08
1.03637      	7.863804e-08
1.03773      	7.864435e-08
1.03909      	7.865362e-08
1.04045      	7.863298e-08
1.04181      	7.866865e-08
1.04318      	7.869642e-08
1.04454      	7.871552e-08
1.04591      	7.866425e-08
1.04727      	7.864805e-08
1.04864      	7.862514e-08
1.05001      	7.857762e-08
1.05138      	7.855606e-08
1.05275      	7.855272e-08
1.05412      	7.854475e-08
1.0555       	7.854642e-08
1.05687      	7.855256e-08
1.05824      	7.858806e-08
1.05962      	7.862230e-08
1.06099      	7.866462e-08
1.06237      	7.889133e-08
1.06375      	7.906972e-08
1.06512      	7.898929e-08
1.0665       	7.880818e-08
1.06788      	7.870082e-08
1.06926      	7.865383e-08
1.07064      	7.862344e-08
1.07203      	7.857652e-08
1.07341      	7.861144e-08
1.07479      	7.862963e-08
1.07618      	7.863725e-08
1.07757      	7.865543e-08
1.07895      	7.866825e-08
1.08034      	7.870538e-08
1.08173      	7.873087e-08
1.08312      	7.877062e-08
1.08452      	7.881851e-08
1.08591      	7.887797e-08
1.0873       	7.891763e-08
1.08868      	7.896881e-08
1.09007      	7.899477e-08
1.09146      	7.905397e-08
1.09285      	7.907456e-08
1.09423      	7.910026e-08
1.09562      	7.914222e-08
1.097        	7.918886e-08
1.09839      	7.922101e-08
1.09977      	7.928267e-08
1.10115      	7.934490e-08
1.10253      	7.938594e-08
1.10392      	7.944029e-08
1.1053       	7.950028e-08
1.10668      	7.956519e-08
1.10806      	7.963153e-08
1.10944      	7.968895e-08
1.11082      	7.975347e-08
1.1122       	7.982158e-08
1.11358      	7.990561e-08
1.11496      	7.998820e-08
1.11634      	8.006760e-08
1.11771      	8.016745e-08
1.11909      	8.026256e-08
1.12047      	8.035412e-08
1.12185      	8.043757e-08
1.12323      	8.052315e-08
1.12461      	8.061015e-08
1.12599      	8.068656e-08
1.12736      	8.077295e-08
1.12874      	8.085855e-08
1.13012      	8.094169e-08
1.1315       	8.102272e-08
1.13288      	8.113095e-08
1.13425      	8.123258e-08
1.13562      	8.131790e-08
1.13699      	8.138784e-08
1.13836      	8.148825e-08
1.13972      	8.157187e-08
1.14108      	8.167694e-08
1.14244      	8.178505e-08
1.1438       	8.185838e-08
1.14515      	8.195206e-08
1.1465       	8.208150e-08
1.14785      	8.221485e-08
1.14919      	8.236574e-08
1.15054      	8.249704e-08
1.15188      	8.263269e-08
1.15321      	8.276760e-08
1.15454      	8.290320e-08
1.15588      	8.304689e-08
1.1572       	8.316350e-08
1.15853      	8.329559e-08
1.15985      	8.341429e-08
1.16117      	8.351217e-08
1.16249      	8.358838e-08
1.1638       	8.371014e-08
1.16511      	8.379499e-08
1.16642      	8.389478e-08
1.16772      	8.404444e-08
1.16903      	8.420549e-08
1.17033      	8.430330e-08
1.17162      	8.442746e-08
1.17292      	8.453515e-08
1.17421      	8.465308e-08
1.1755       	8.476932e-08
1.17678      	8.487356e-08
1.17807      	8.493136e-08
1.17935      	8.504773e-08
1.18062      	8.509902e-08
1.1819       	8.522332e-08
1.18317      	8.535676e-08
1.18444      	8.548040e-08
1.18571      	8.559181e-08
1.18698      	8.567443e-08
1.18824      	8.578339e-08
1.1895       	8.589561e-08
1.19076      	8.600461e-08
1.19201      	8.606467e-08
1.19327      	8.613440e-08
1.19452      	8.625133e-08
1.19577      	8.636703e-08
1.19702      	8.646387e-08
1.19827      	8.657025e-08
1.19952      	8.668252e-08
1.20076      	8.675646e-08
1.20201      	8.685009e-08
1.20325      	8.693168e-08
1.20449      	8.704439e-08
1.20573      	8.714500e-08
1.20698      	8.723963e-08
1.20821      	8.733744e-08
1.20945      	8.747249e-08
1.21069      	8.760568e-08
1.21192      	8.773618e-08
1.21316      	8.784142e-08
1.21439      	8.793977e-08
1.21563      	8.806259e-08
1.21686      	8.818537e-08
1.21809      	8.832025e-08
1.21932      	8.840048e-08
1.22055      	8.847181e-08
1.22178      	8.858879e-08
1.22301      	8.872182e-08
1.22424      	8.883316e-08
1.22547      	8.893872e-08
1.22669      	8.905280e-08
1.22792      	8.915841e-08
1.22915      	8.926603e-08
1.23037      	8.936161e-08
1.23159      	8.949149e-08
1.23281      	8.959514e-08
1.23403      	8.972205e-08
1.23525      	8.985887e-08
1.23647      	8.986370e-08
1.23769      	8.991918e-08
1.2389       	9.001427e-08
1.24012      	9.011194e-08
1.24134      	9.020397e-08
1.24255      	9.031000e-08
1.24377      	9.040707e-08
1.24498      	9.051384e-08
1.2462       	9.061581e-08
1.24741      	9.073473e-08
1.24862      	9.083018e-08
1.24984      	9.092709e-08
1.25105      	9.102896e-08
1.25226      	9.110737e-08
1.25347      	9.119716e-08
1.25468      	9.127066e-08
1.2559       	9.135157e-08
1.25711      	9.144792e-08
1.25832      	9.153488e-08
1.25953      	9.162250e-08
1.26073      	9.171244e-08
1.26194      	9.180089e-08
1.26315      	9.189532e-08
1.26436      	9.199449e-08
1.26557      	9.207257e-08
1.26677      	9.217653e-08
1.26798      	9.227328e-08
1.26919      	9.238485e-08
1.2704       	9.249383e-08
1.2716       	9.259154e-08
1.27281      	9.267019e-08
1.27401      	9.276635e-08
1.27521      	9.285612e-08
1.27641      	9.294744e-08
1.27761      	9.304522e-08
1.27881      	9.311098e-08
1.28001      	9.317920e-08
1.28121      	9.325264e-08
1.2824       	9.332042e-08
1.2836       	9.338834e-08
1.28479      	9.345746e-08
1.28599      	9.351200e-08
1.28719      	9.359666e-08
1.28839      	9.366876e-08
1.28958      	9.373714e-08
1.29078      	9.381957e-08
1.29197      	9.389223e-08
1.29317      	9.395708e-08
1.29437      	9.402948e-08
1.29556      	9.411879e-08
1.29676      	9.419071e-08
1.29796      	9.423807e-08
1.29915      	9.429414e-08
1.30035      	9.437560e-08
1.30155      	9.445009e-08
1.30275      	9.452302e-08
1.30394      	9.456437e-08
1.30514      	9.462881e-08
1.30634      	9.467554e-08
1.30753      	9.472215e-08
1.30873      	9.476013e-08
1.30992      	9.480778e-08
1.31112      	9.484915e-08
1.31232      	9.491291e-08
1.31352      	9.496654e-08
1.31472      	9.503667e-08
1.31591      	9.509247e-08
1.31711      	9.513983e-08
1.31831      	9.518204e-08
1.31951      	9.522114e-08
1.32071      	9.526292e-08
1.3219       	9.532653e-08
1.3231       	9.535976e-08
1.3243       	9.539225e-08
1.3255       	9.542575e-08
1.3267       	9.547967e-08
1.3279       	9.552400e-08
1.3291       	9.555209e-08
1.33029      	9.559032e-08
1.33149      	9.560549e-08
1.33269      	9.561413e-08
1.33389      	9.563356e-08
1.33509      	9.566569e-08
1.33629      	9.567640e-08
1.33749      	9.569540e-08
1.33868      	9.573412e-08
1.33988      	9.574537e-08
1.34108      	9.576244e-08
1.34228      	9.578388e-08
1.34348      	9.580828e-08
1.34468      	9.585124e-08
1.34588      	9.587632e-08
1.34708      	9.589620e-08
1.34828      	9.591397e-08
1.34948      	9.594730e-08
1.35067      	9.595871e-08
1.35187      	9.597007e-08
1.35307      	9.596759e-08
1.35427      	9.597721e-08
1.35547      	9.600640e-08
1.35666      	9.604683e-08
1.35786      	9.610733e-08
1.35906      	9.617155e-08
1.36027      	9.618365e-08
1.36147      	9.618046e-08
1.36267      	9.624783e-08
1.36388      	9.625251e-08
1.36508      	9.628558e-08
1.36629      	9.627584e-08
1.3675       	9.629940e-08
1.36871      	9.629936e-08
1.36991      	9.630661e-08
1.37112      	9.630184e-08
1.37234      	9.629926e-08
1.37355      	9.631026e-08
1.37476      	9.633233e-08
1.37597      	9.636881e-08
1.37718      	9.638112e-08
1.37839      	9.639715e-08
1.37961      	9.641410e-08
1.38082      	9.641918e-08
1.38203      	9.643620e-08
1.38325      	9.643605e-08
1.38446      	9.644647e-08
1.38568      	9.645433e-08