# Region type : patch bottom
# Faces  :   1000
# Area   :   6.239977e-01
# Time       	sumDirection(phi)
0.0119048    	0.000000e+00
0.0136413    	2.546905e-06
0.0153687    	1.892238e-07
0.0170962    	1.061287e-07
0.0188297    	5.391084e-08
0.0205632    	4.614966e-08
0.0222967    	4.150131e-08
0.0240302    	3.864161e-08
0.0257607    	3.672097e-08
0.027488     	3.536189e-08
0.0292154    	3.435914e-08
0.0309397    	3.360622e-08
0.032664     	3.302171e-08
0.0343883    	3.259727e-08
0.0361126    	3.222538e-08
0.0378339    	3.197514e-08
0.0395551    	3.182938e-08
0.0412763    	3.169115e-08
0.0429975    	3.162594e-08
0.0447188    	3.158336e-08
0.04644      	3.156482e-08
0.0481612    	3.152911e-08
0.0498794    	3.154170e-08
0.0515975    	3.157270e-08
0.0533156    	3.158829e-08
0.0550306    	3.160578e-08
0.0567456    	3.162946e-08
0.0584575    	3.166659e-08
0.0601694    	3.166629e-08
0.0618782    	3.168955e-08
0.063587     	3.172474e-08
0.0652926    	3.176498e-08
0.0669983    	3.177248e-08
0.0687009    	3.179395e-08
0.0704034    	3.179116e-08
0.072106     	3.183581e-08
0.0738054    	3.187392e-08
0.0755049    	3.189799e-08
0.0772043    	3.192003e-08
0.0789006    	3.193945e-08
0.0805969    	3.194590e-08
0.0822932    	3.195287e-08
0.0839896    	3.195461e-08
0.0856827    	3.195929e-08
0.0873759    	3.197592e-08
0.0890691    	3.198628e-08
0.0907591    	3.199970e-08
0.0924492    	3.200684e-08
0.0941361    	3.201556e-08
0.095823     	3.203972e-08
0.0975067    	3.199406e-08
0.0991905    	3.194455e-08
0.100871     	3.192205e-08
0.102549     	3.191328e-08
0.104226     	3.191132e-08
0.1059       	3.189682e-08
0.107572     	3.187602e-08
0.109243     	3.186018e-08
0.110911     	3.184743e-08
0.112576     	3.183142e-08
0.114241     	3.183199e-08
0.115903     	3.185221e-08
0.117561     	3.187710e-08
0.11922      	3.189344e-08
0.120876     	3.191187e-08
0.122528     	3.193140e-08
0.124181     	3.196428e-08
0.12583      	3.199744e-08
0.127479     	3.202084e-08
0.129126     	3.206176e-08
0.130769     	3.208382e-08
0.132412     	3.211483e-08
0.134052     	3.213869e-08
0.135689     	3.217806e-08
0.137326     	3.222982e-08
0.13896      	3.229417e-08
0.140591     	3.235407e-08
0.142218     	3.241579e-08
0.143846     	3.247424e-08
0.145471     	3.252825e-08
0.147092     	3.258321e-08
0.14871      	3.263508e-08
0.150329     	3.269561e-08
0.151944     	3.275625e-08
0.153556     	3.281484e-08
0.155169     	3.287946e-08
0.156778     	3.294762e-08
0.158387     	3.300675e-08
0.159993     	3.306283e-08
0.161596     	3.312926e-08
0.163199     	3.319445e-08
0.164799     	3.325599e-08
0.166399     	3.331769e-08
0.167996     	3.337878e-08
0.169593     	3.344428e-08
0.171187     	3.351300e-08
0.172781     	3.358361e-08
0.174372     	3.364321e-08
0.175963     	3.370843e-08
0.177553     	3.376023e-08
0.179141     	3.382626e-08
0.180726     	3.389213e-08
0.182311     	3.396187e-08
0.183892     	3.401815e-08
0.185474     	3.410008e-08
0.187052     	3.416840e-08
0.188631     	3.424848e-08
0.190206     	3.432636e-08
0.191782     	3.441151e-08
0.193354     	3.449545e-08
0.194927     	3.458269e-08
0.196496     	3.466480e-08
0.198065     	3.477485e-08
0.199635     	3.488242e-08
0.201201     	3.498145e-08
0.202767     	3.508534e-08
0.20433      	3.518659e-08
0.205894     	3.528945e-08
0.207457     	3.539185e-08
0.209017     	3.549124e-08
0.210577     	3.559227e-08
0.212137     	3.570140e-08
0.213694     	3.580802e-08
0.215251     	3.591190e-08
0.216808     	3.601100e-08
0.218362     	3.610720e-08
0.219916     	3.620403e-08
0.22147      	3.629373e-08
0.223024     	3.637954e-08
0.224575     	3.646606e-08
0.226126     	3.655301e-08
0.227677     	3.663154e-08
0.229224     	3.669956e-08
0.230772     	3.677623e-08
0.23232      	3.684546e-08
0.233868     	3.690763e-08
0.235412     	3.697234e-08
0.236957     	3.703141e-08
0.238501     	3.708912e-08
0.240046     	3.715128e-08
0.241591     	3.721356e-08
0.243135     	3.727708e-08
0.244677     	3.734043e-08
0.246218     	3.740600e-08
0.24776      	3.747598e-08
0.249301     	3.752650e-08
0.250843     	3.758330e-08
0.252384     	3.762218e-08
0.253926     	3.767330e-08
0.255467     	3.771948e-08
0.257009     	3.776860e-08
0.25855      	3.780339e-08
0.260092     	3.785182e-08
0.261636     	3.789945e-08
0.263181     	3.794674e-08
0.264726     	3.799053e-08
0.26627      	3.802383e-08
0.267815     	3.806355e-08
0.26936      	3.810631e-08
0.270901     	3.814924e-08
0.272443     	3.818118e-08
0.273984     	3.821448e-08
0.275522     	3.824868e-08
0.27706      	3.829860e-08
0.278599     	3.832386e-08
0.280133     	3.835674e-08
0.281668     	3.838611e-08
0.283203     	3.841874e-08
0.284738     	3.845845e-08
0.28627      	3.850309e-08
0.287801     	3.854810e-08
0.289333     	3.859241e-08
0.290865     	3.864510e-08
0.292396     	3.872021e-08
0.293924     	3.879463e-08
0.295453     	3.887429e-08
0.296978     	3.895519e-08
0.298503     	3.900692e-08
0.300028     	3.901344e-08
0.301553     	3.900937e-08
0.303074     	3.902731e-08
0.304596     	3.908134e-08
0.306114     	3.913590e-08
0.307629     	3.920658e-08
0.309145     	3.928289e-08
0.310656     	3.939744e-08
0.312168     	3.952419e-08
0.313676     	3.966012e-08
0.315185     	3.975667e-08
0.316693     	3.985711e-08
0.318198     	3.993376e-08
0.319703     	4.002590e-08
0.321208     	4.005291e-08
0.322713     	4.014054e-08
0.324219     	4.026559e-08
0.32572      	4.037347e-08
0.327222     	4.048301e-08
0.32872      	4.055539e-08
0.330219     	4.065474e-08
0.331714     	4.076014e-08
0.333202     	4.090986e-08
0.334687     	4.107412e-08
0.336166     	4.126118e-08
0.337638     	4.139490e-08
0.339103     	4.155813e-08
0.340559     	4.167503e-08
0.342008     	4.184308e-08
0.343451     	4.205676e-08
0.344885     	4.219708e-08
0.346312     	4.234753e-08
0.347733     	4.245434e-08
0.349145     	4.261339e-08
0.350551     	4.277636e-08
0.35195      	4.290616e-08
0.353344     	4.304174e-08
0.354732     	4.316903e-08
0.356113     	4.331972e-08
0.357489     	4.345013e-08
0.358859     	4.358037e-08
0.360223     	4.372844e-08
0.361582     	4.387491e-08
0.362937     	4.400634e-08
0.364287     	4.417387e-08
0.365634     	4.433834e-08
0.366975     	4.450434e-08
0.368313     	4.469809e-08
0.369646     	4.487641e-08
0.370976     	4.505199e-08
0.372303     	4.519188e-08
0.373627     	4.530507e-08
0.374948     	4.542426e-08
0.376267     	4.557191e-08
0.377583     	4.572259e-08
0.378899     	4.588776e-08
0.380212     	4.606545e-08
0.381525     	4.621529e-08
0.382835     	4.635550e-08
0.384146     	4.649430e-08
0.385456     	4.662686e-08
0.386766     	4.674663e-08
0.388077     	4.683123e-08
0.389387     	4.690860e-08
0.390697     	4.700383e-08
0.392008     	4.708980e-08
0.393315     	4.719242e-08
0.394623     	4.728965e-08
0.39593      	4.736906e-08
0.397238     	4.744511e-08
0.398542     	4.752064e-08
0.399847     	4.758616e-08
0.401152     	4.765994e-08
0.402456     	4.776279e-08
0.403764     	4.786177e-08
0.405071     	4.791542e-08
0.406379     	4.796824e-08
0.407687     	4.800760e-08
0.408994     	4.803608e-08
0.410302     	4.806564e-08
0.411609     	4.810129e-08
0.412917     	4.811999e-08
0.414221     	4.812553e-08
0.415523     	4.818102e-08
0.416825     	4.823750e-08
0.418124     	4.829117e-08
0.419422     	4.831140e-08
0.420721     	4.836934e-08
0.42202      	4.840279e-08
0.423319     	4.843256e-08
0.424618     	4.845376e-08
0.425917     	4.845414e-08
0.427215     	4.847619e-08
0.428517     	4.844362e-08
0.429819     	4.845821e-08
0.431124     	4.846255e-08
0.432429     	4.844465e-08
0.433736     	4.838468e-08
0.435044     	4.837757e-08
0.436352     	4.835383e-08
0.43766      	4.834936e-08
0.438967     	4.835194e-08
0.440275     	4.836686e-08
0.441583     	4.833508e-08
0.442894     	4.830799e-08
0.444205     	4.828388e-08
0.445515     	4.826278e-08
0.446826     	4.822946e-08
0.448137     	4.821637e-08
0.449448     	4.821383e-08
0.450759     	4.817864e-08
0.45207      	4.819579e-08
0.453384     	4.815243e-08
0.454698     	4.811154e-08
0.456012     	4.804918e-08
0.457329     	4.798014e-08
0.458646     	4.793257e-08
0.459966     	4.791359e-08
0.461287     	4.785848e-08
0.46261      	4.781633e-08
0.463934     	4.773295e-08
0.465261     	4.767385e-08
0.466588     	4.762969e-08
0.467918     	4.758646e-08
0.469248     	4.752872e-08
0.470578     	4.748064e-08
0.471912     	4.743508e-08
0.473245     	4.738315e-08
0.474579     	4.732945e-08
0.475912     	4.724810e-08
0.477249     	4.715269e-08
0.478586     	4.704914e-08
0.479923     	4.697196e-08
0.48126      	4.688576e-08
0.482597     	4.680217e-08
0.483938     	4.671836e-08
0.485278     	4.663751e-08
0.486619     	4.657045e-08
0.487959     	4.650436e-08
0.489299     	4.643090e-08
0.490643     	4.636306e-08
0.491987     	4.633391e-08
0.493331     	4.628548e-08
0.494679     	4.622378e-08
0.496026     	4.613108e-08
0.497374     	4.604872e-08
0.498725     	4.596986e-08
0.500076     	4.589109e-08
0.501431     	4.579818e-08
0.502786     	4.569880e-08
0.504144     	4.563234e-08
0.505503     	4.555600e-08
0.506861     	4.547905e-08
0.508223     	4.538727e-08
0.509586     	4.528283e-08
0.510948     	4.516479e-08
0.51231      	4.512947e-08
0.513673     	4.508274e-08
0.515035     	4.502171e-08
0.516397     	4.494606e-08
0.517759     	4.487031e-08
0.519122     	4.479229e-08
0.520484     	4.470204e-08
0.521846     	4.457200e-08
0.523212     	4.449543e-08
0.524578     	4.441684e-08
0.525945     	4.432567e-08
0.527311     	4.424700e-08
0.528681     	4.418901e-08
0.530051     	4.411812e-08
0.531421     	4.406193e-08
0.532795     	4.400846e-08
0.534169     	4.394349e-08
0.535543     	4.387239e-08
0.536914     	4.382712e-08
0.53828      	4.378771e-08
0.539646     	4.372790e-08
0.541008     	4.367255e-08
0.54237      	4.360820e-08
0.543728     	4.356868e-08
0.545086     	4.348916e-08
0.546439     	4.342692e-08
0.547793     	4.335835e-08
0.549143     	4.328857e-08
0.550493     	4.323005e-08
0.551843     	4.317263e-08
0.553193     	4.312853e-08
0.554539     	4.302274e-08
0.555884     	4.297717e-08
0.55723      	4.290886e-08
0.558576     	4.287428e-08
0.559922     	4.282467e-08
0.561268     	4.277864e-08
0.562613     	4.273706e-08
0.563959     	4.269446e-08
0.565309     	4.265867e-08
0.566659     	4.261952e-08
0.568009     	4.256471e-08
0.569359     	4.250083e-08
0.570713     	4.245204e-08
0.572068     	4.240167e-08
0.573422     	4.233623e-08
0.57478      	4.228663e-08
0.576139     	4.224404e-08
0.577497     	4.220934e-08
0.57886      	4.217923e-08
0.580223     	4.215547e-08
0.581591     	4.212300e-08
0.582958     	4.207711e-08
0.584325     	4.204722e-08
0.585697     	4.203112e-08
0.587069     	4.199559e-08
0.588441     	4.196628e-08
0.589817     	4.191541e-08
0.591194     	4.189693e-08
0.59257      	4.187864e-08
0.593951     	4.185850e-08
0.595332     	4.181897e-08
0.596714     	4.177898e-08
0.598095     	4.174910e-08
0.599476     	4.173948e-08
0.600862     	4.172130e-08
0.602248     	4.170155e-08
0.603633     	4.169227e-08
0.605024     	4.168063e-08
0.606415     	4.165437e-08
0.607806     	4.163697e-08
0.609201     	4.162257e-08
0.610597     	4.159600e-08
0.611993     	4.160110e-08
0.613394     	4.158715e-08
0.614794     	4.158051e-08
0.6162       	4.156409e-08
0.617606     	4.151581e-08
0.619012     	4.148446e-08
0.620423     	4.148723e-08
0.621834     	4.147502e-08
0.623245     	4.149037e-08
0.624656     	4.149143e-08
0.626073     	4.146659e-08
0.627489     	4.140327e-08
0.628905     	4.135989e-08
0.630322     	4.133717e-08
0.631738     	4.132305e-08
0.63316      	4.131368e-08
0.634582     	4.131335e-08
0.636004     	4.130276e-08
0.637426     	4.129115e-08
0.638853     	4.128410e-08
0.640281     	4.128218e-08
0.641708     	4.124814e-08
0.643135     	4.121275e-08
0.644569     	4.119585e-08
0.646002     	4.118520e-08
0.647435     	4.115441e-08
0.648874     	4.115664e-08
0.650313     	4.116979e-08
0.651752     	4.118261e-08
0.653197     	4.119082e-08
0.654642     	4.118468e-08
0.656087     	4.116677e-08
0.657532     	4.114846e-08
0.658983     	4.112950e-08
0.660434     	4.110764e-08
0.661886     	4.109150e-08
0.663343     	4.106993e-08
0.6648       	4.105390e-08
0.666258     	4.109523e-08
0.667715     	4.119416e-08
0.669173     	4.136894e-08
0.67063      	4.156637e-08
0.672094     	4.163911e-08
0.673558     	4.149609e-08
0.675022     	4.134016e-08
0.676485     	4.125361e-08
0.677956     	4.118569e-08
0.679426     	4.111510e-08
0.680897     	4.109951e-08
0.682368     	4.109309e-08
0.683845     	4.107952e-08
0.685322     	4.109566e-08
0.6868       	4.112455e-08
0.688277     	4.119624e-08
0.689754     	4.132586e-08
0.691239     	4.151931e-08
0.692723     	4.176212e-08
0.694208     	4.199528e-08
0.695692     	4.211707e-08
0.697184     	4.194691e-08
0.698675     	4.182311e-08
0.700167     	4.175332e-08
0.701666     	4.168981e-08
0.703165     	4.161220e-08
0.704665     	4.157969e-08
0.706156     	4.159906e-08
0.707648     	4.164775e-08
0.709132     	4.168805e-08
0.710616     	4.175049e-08
0.712092     	4.180576e-08
0.713569     	4.185510e-08
0.715038     	4.189074e-08
0.716507     	4.193379e-08
0.717975     	4.195952e-08
0.719437     	4.203047e-08
0.720898     	4.211632e-08
0.722359     	4.221238e-08
0.723813     	4.226816e-08
0.725266     	4.235259e-08
0.72672      	4.244110e-08
0.728166     	4.256208e-08
0.729612     	4.265768e-08
0.731058     	4.272394e-08
0.732504     	4.273315e-08
0.73395      	4.280578e-08
0.735388     	4.289518e-08
0.736826     	4.302410e-08
0.738264     	4.308714e-08
0.739702     	4.306189e-08
0.741132     	4.309726e-08
0.742563     	4.309800e-08
0.743993     	4.309509e-08
0.745423     	4.312732e-08
0.746853     	4.317831e-08
0.748275     	4.324259e-08
0.749698     	4.331969e-08
0.75112      	4.338031e-08
0.752542     	4.342994e-08
0.753964     	4.348229e-08
0.755386     	4.357586e-08
0.756808     	4.360620e-08
0.758231     	4.364164e-08
0.759644     	4.368961e-08
0.761058     	4.377883e-08
0.762472     	4.382897e-08
0.763886     	4.383992e-08
0.7653       	4.388572e-08
0.766714     	4.392125e-08
0.768128     	4.397209e-08
0.769541     	4.401938e-08
0.770955     	4.409553e-08
0.772369     	4.418424e-08
0.773783     	4.425390e-08
0.775188     	4.425154e-08
0.776593     	4.428008e-08
0.777998     	4.433239e-08
0.779403     	4.438131e-08
0.780808     	4.440949e-08
0.782213     	4.445703e-08
0.783618     	4.449090e-08
0.785024     	4.455209e-08
0.786429     	4.474574e-08
0.787834     	4.506642e-08
0.789239     	4.531843e-08
0.790644     	4.559184e-08
0.792049     	4.557399e-08
0.793454     	4.544315e-08
0.794859     	4.538602e-08
0.796255     	4.542403e-08
0.79765      	4.551516e-08
0.799046     	4.563724e-08
0.800441     	4.570028e-08
0.801837     	4.572900e-08
0.803232     	4.574880e-08
0.804628     	4.582033e-08
0.806023     	4.593068e-08
0.807419     	4.603072e-08
0.808814     	4.604707e-08
0.81021      	4.605768e-08
0.811595     	4.615441e-08
0.81298      	4.627729e-08
0.814366     	4.636022e-08
0.815751     	4.662324e-08
0.817147     	4.705705e-08
0.818543     	4.750094e-08
0.819928     	4.756955e-08
0.821313     	4.734519e-08
0.822698     	4.732880e-08
0.824083     	4.739299e-08
0.825469     	4.751623e-08
0.826854     	4.753980e-08
0.828239     	4.754234e-08
0.829624     	4.765193e-08
0.831009     	4.786579e-08
0.832394     	4.823635e-08
0.83378      	4.864515e-08
0.835165     	4.893824e-08
0.836538     	4.903206e-08
0.837912     	4.895219e-08
0.839286     	4.888000e-08
0.840659     	4.916447e-08
0.842033     	4.958262e-08
0.843407     	4.981436e-08
0.84478      	4.960382e-08
0.846154     	4.926706e-08
0.847527     	4.901418e-08
0.848889     	4.882747e-08
0.85025      	4.870479e-08
0.851612     	4.861310e-08
0.852973     	4.860607e-08
0.854334     	4.862927e-08
0.855696     	4.877212e-08
0.857057     	4.899992e-08
0.858418     	4.914943e-08
0.85978      	4.904328e-08
0.861141     	4.887205e-08
0.862502     	4.873403e-08
0.863864     	4.865936e-08
0.865225     	4.865197e-08
0.866586     	4.868373e-08
0.867948     	4.872372e-08
0.869309     	4.876948e-08
0.870671     	4.883512e-08
0.872032     	4.896454e-08
0.873393     	4.909370e-08
0.874755     	4.918287e-08
0.876116     	4.914211e-08
0.877463     	4.900929e-08
0.878809     	4.898012e-08
0.880156     	4.903030e-08
0.881502     	4.914218e-08
0.882849     	4.926336e-08
0.884195     	4.944167e-08
0.885542     	4.944753e-08
0.886889     	4.929643e-08
0.888235     	4.912967e-08
0.889582     	4.896829e-08
0.890928     	4.885953e-08
0.892275     	4.882144e-08
0.893621     	4.894799e-08
0.894968     	4.916552e-08
0.896314     	4.933289e-08
0.897661     	4.917675e-08
0.899008     	4.906797e-08
0.900354     	4.898922e-08
0.901701     	4.893357e-08
0.903047     	4.887182e-08
0.904394     	4.883213e-08
0.905722     	4.871601e-08
0.90705      	4.866354e-08
0.908377     	4.860934e-08
0.909705     	4.856748e-08
0.911033     	4.854586e-08
0.912361     	4.853067e-08
0.913689     	4.849452e-08
0.915017     	4.843527e-08
0.916345     	4.836662e-08
0.917673     	4.836826e-08
0.919        	4.848757e-08
0.920328     	4.883487e-08
0.921656     	4.917677e-08
0.922984     	4.943393e-08
0.924312     	4.975944e-08
0.92564      	5.031470e-08
0.926968     	5.058802e-08
0.928295     	5.049466e-08
0.929623     	5.016414e-08
0.930951     	4.998158e-08
0.932279     	4.979838e-08
0.933607     	4.935823e-08
0.934935     	4.899689e-08
0.936263     	4.875838e-08
0.93759      	4.859743e-08
0.938918     	4.847462e-08
0.940246     	4.839074e-08
0.941574     	4.833185e-08
0.942902     	4.830293e-08
0.94423      	4.831711e-08
0.945558     	4.841704e-08
0.946885     	4.855408e-08
0.948213     	4.867669e-08
0.949541     	4.860480e-08
0.950869     	4.869238e-08
0.952197     	4.895125e-08
0.953525     	4.918872e-08
0.954853     	4.898698e-08
0.956181     	4.861787e-08
0.957508     	4.838061e-08
0.958836     	4.824548e-08
0.960164     	4.815590e-08
0.961492     	4.810705e-08
0.96282      	4.813426e-08
0.964148     	4.825361e-08
0.965476     	4.845189e-08
0.966803     	4.860388e-08
0.968131     	4.848750e-08
0.969459     	4.825164e-08
0.970787     	4.819631e-08
0.972115     	4.831656e-08
0.973443     	4.857329e-08
0.974771     	4.886847e-08
0.976098     	4.886471e-08
0.977426     	4.866053e-08
0.978754     	4.879594e-08
0.980082     	4.917287e-08
0.98141      	4.943892e-08
0.982738     	4.936062e-08
0.984066     	4.943699e-08
0.985394     	4.954203e-08
0.986721     	4.977908e-08
0.988049     	4.962637e-08
0.989377     	4.907925e-08
0.990705     	4.860043e-08
0.992033     	4.828188e-08
0.993361     	4.803611e-08
0.994689     	4.783197e-08
0.996016     	4.766334e-08
0.997344     	4.757723e-08
0.998672     	4.752033e-08
1            	4.746665e-08
1.00139      	4.741182e-08
1.00277      	4.730698e-08
1.00416      	4.726468e-08
1.00556      	4.724479e-08
1.00696      	4.721347e-08
1.00836      	4.717751e-08
1.00977      	4.714802e-08
1.01118      	4.714113e-08
1.0126       	4.709839e-08
1.01402      	4.705939e-08
1.01545      	4.702481e-08
1.01688      	4.694457e-08
1.01832      	4.687415e-08
1.01977      	4.683862e-08
1.02122      	4.678811e-08
1.02268      	4.675734e-08
1.02414      	4.670938e-08
1.02561      	4.669351e-08
1.02709      	4.666744e-08
1.02857      	4.660688e-08
1.03006      	4.650129e-08
1.03154      	4.642258e-08
1.03303      	4.637389e-08
1.03452      	4.628482e-08
1.03601      	4.618603e-08
1.03751      	4.613018e-08
1.039        	4.610079e-08
1.0405       	4.605863e-08
1.04201      	4.602634e-08
1.04351      	4.600218e-08
1.04502      	4.603945e-08
1.04654      	4.615499e-08
1.04805      	4.628883e-08
1.04955      	4.630482e-08
1.05106      	4.606933e-08
1.05257      	4.585088e-08
1.05408      	4.568995e-08
1.05558      	4.558852e-08
1.05709      	4.550606e-08
1.05859      	4.545999e-08
1.06009      	4.538754e-08
1.0616       	4.532009e-08
1.06309      	4.526040e-08
1.06459      	4.518428e-08
1.06609      	4.513557e-08
1.06759      	4.510421e-08
1.06909      	4.512203e-08
1.07059      	4.522286e-08
1.07209      	4.539994e-08
1.07359      	4.541151e-08
1.0751       	4.531586e-08
1.0766       	4.508014e-08
1.07811      	4.500327e-08
1.07961      	4.503569e-08
1.08111      	4.515746e-08
1.08262      	4.522312e-08
1.08412      	4.523420e-08
1.08563      	4.512344e-08
1.08713      	4.489088e-08
1.08864      	4.475963e-08
1.09015      	4.465593e-08
1.09166      	4.453913e-08
1.09317      	4.442308e-08
1.09468      	4.431505e-08
1.0962       	4.421415e-08
1.09772      	4.412902e-08
1.09924      	4.401444e-08
1.10076      	4.393678e-08
1.10229      	4.387012e-08
1.10381      	4.379494e-08
1.10534      	4.374148e-08
1.10686      	4.370745e-08
1.10839      	4.368359e-08
1.10992      	4.359756e-08
1.11145      	4.355037e-08
1.11299      	4.353542e-08
1.11452      	4.356914e-08
1.11606      	4.367039e-08
1.1176       	4.374109e-08
1.11914      	4.376863e-08
1.12068      	4.371185e-08
1.12222      	4.354948e-08
1.12377      	4.342497e-08
1.12532      	4.334638e-08
1.12687      	4.328287e-08
1.12842      	4.324813e-08
1.12997      	4.323010e-08
1.13152      	4.324742e-08
1.13307      	4.321890e-08
1.13462      	4.311860e-08
1.13617      	4.302575e-08
1.13772      	4.295052e-08
1.13927      	4.287925e-08
1.14082      	4.284031e-08
1.14236      	4.280578e-08
1.14391      	4.273046e-08
1.14546      	4.268922e-08
1.14701      	4.272840e-08
1.14856      	4.286076e-08
1.15011      	4.306493e-08
1.15166      	4.317289e-08
1.15321      	4.313728e-08
1.15476      	4.292359e-08
1.15632      	4.279622e-08
1.15787      	4.273845e-08
1.15943      	4.272684e-08
1.16099      	4.271101e-08
1.16254      	4.263439e-08
1.1641       	4.257195e-08
1.16566      	4.254071e-08
1.16721      	4.252271e-08
1.16877      	4.251619e-08
1.17033      	4.250704e-08
1.17189      	4.252149e-08
1.17345      	4.254008e-08
1.17502      	4.253387e-08
1.17658      	4.253111e-08
1.17815      	4.249647e-08
1.17972      	4.249406e-08
1.18128      	4.250699e-08
1.18285      	4.254339e-08
1.18442      	4.255683e-08
1.18599      	4.259588e-08
1.18757      	4.262929e-08
1.18914      	4.265526e-08
1.19072      	4.269463e-08
1.19229      	4.274196e-08
1.19386      	4.277979e-08
1.19544      	4.281000e-08
1.19702      	4.284574e-08
1.1986       	4.289216e-08
1.20017      	4.292874e-08
1.20176      	4.292543e-08
1.20334      	4.293370e-08
1.20492      	4.295622e-08
1.2065       	4.297675e-08
1.20808      	4.302139e-08
1.20966      	4.306565e-08
1.21125      	4.312908e-08
1.21284      	4.323468e-08
1.21442      	4.336434e-08
1.21601      	4.348162e-08
1.2176       	4.349672e-08
1.21919      	4.355567e-08
1.22078      	4.366142e-08
1.22238      	4.376845e-08
1.22397      	4.373286e-08
1.22556      	4.368585e-08
1.22716      	4.365245e-08
1.22875      	4.361378e-08
1.23034      	4.361485e-08
1.23193      	4.364651e-08
1.23351      	4.363638e-08
1.2351       	4.364667e-08
1.23668      	4.368759e-08
1.23826      	4.373679e-08
1.23984      	4.386643e-08
1.24142      	4.393145e-08
1.243        	4.389025e-08
1.24457      	4.389730e-08
1.24615      	4.390910e-08
1.24773      	4.392972e-08
1.2493       	4.398244e-08
1.25087      	4.409057e-08
1.25245      	4.419352e-08
1.25402      	4.428712e-08
1.25559      	4.429378e-08
1.25716      	4.435227e-08
1.25873      	4.443036e-08
1.2603       	4.440701e-08
1.26187      	4.439596e-08
1.26344      	4.440435e-08
1.26501      	4.442969e-08
1.26657      	4.447430e-08
1.26814      	4.454160e-08
1.26971      	4.462807e-08
1.27128      	4.475581e-08
1.27285      	4.490877e-08
1.27442      	4.506348e-08
1.27599      	4.511725e-08
1.27756      	4.508081e-08
1.27913      	4.504246e-08
1.2807       	4.502810e-08
1.28227      	4.502474e-08
1.28384      	4.505524e-08
1.28541      	4.508912e-08
1.28699      	4.514170e-08
1.28856      	4.516180e-08
1.29014      	4.518592e-08
1.29171      	4.526973e-08
1.29329      	4.537184e-08
1.29487      	4.545804e-08
1.29645      	4.541487e-08
1.29803      	4.541391e-08
1.29961      	4.541774e-08
1.3012       	4.545223e-08
1.30278      	4.552579e-08
1.30437      	4.563097e-08
1.30595      	4.576767e-08
1.30754      	4.581444e-08
1.30913      	4.583926e-08
1.31072      	4.584828e-08
1.31231      	4.586944e-08
1.31391      	4.589002e-08
1.3155       	4.594381e-08
1.31709      	4.600627e-08
1.31869      	4.608357e-08
1.32028      	4.615351e-08
1.32187      	4.619919e-08
1.32345      	4.628075e-08
1.32503      	4.642655e-08
1.3266       	4.656108e-08
1.32817      	4.666101e-08
1.32974      	4.674863e-08
1.33129      	4.677480e-08
1.33285      	4.678378e-08
1.33439      	4.680526e-08
1.33594      	4.682563e-08
1.33748      	4.686740e-08
1.33901      	4.693997e-08
1.34054      	4.702672e-08
1.34206      	4.709146e-08
1.34358      	4.714817e-08
1.34509      	4.717366e-08
1.3466       	4.720896e-08
1.34811      	4.724862e-08
1.34961      	4.729191e-08
1.35111      	4.732877e-08
1.3526       	4.736822e-08
1.3541       	4.741709e-08
1.35558      	4.743612e-08
1.35707      	4.746583e-08
1.35855      	4.751916e-08
1.36003      	4.757572e-08
1.36151      	4.760688e-08
1.36298      	4.762000e-08
1.36445      	4.764101e-08
1.36592      	4.766102e-08
1.36739      	4.768416e-08
1.36886      	4.772859e-08
1.37032      	4.775290e-08
1.37178      	4.779302e-08
1.37325      	4.784828e-08
1.3747       	4.788765e-08
1.37616      	4.788483e-08
1.37761      	4.788577e-08
1.37906      	4.790716e-08
1.38051      	4.793982e-08
1.38196      	4.799757e-08
1.38341      	4.805046e-08
1.38485      	4.809729e-08
1.3863       	4.814394e-08
1.38775      	4.820591e-08
1.3892       	4.828194e-08
1.39064      	4.835467e-08
1.39209      	4.844159e-08
1.39354      	4.854622e-08
1.39499      	4.858032e-08
1.39643      	4.854559e-08
1.39788      	4.851547e-08
1.39933      	4.851351e-08
1.40077      	4.853105e-08
1.40222      	4.854994e-08
1.40366      	4.856144e-08
1.40511      	4.859434e-08
1.40655      	4.864726e-08
1.408        	4.867721e-08
1.40944      	4.869101e-08
1.41089      	4.870104e-08
1.41233      	4.873140e-08
1.41378      	4.877271e-08
1.41522      	4.881473e-08
1.41667      	4.885772e-08
1.41811      	4.890576e-08
1.41955      	4.894788e-08
1.42099      	4.898254e-08
1.42243      	4.902189e-08
1.42388      	4.906383e-08
1.42532      	4.910346e-08
1.42677      	4.916171e-08
1.42821      	4.921396e-08
1.42965      	4.926089e-08
1.4311       	4.930447e-08
1.43254      	4.934838e-08
1.43399      	4.939175e-08
1.43544      	4.942959e-08
1.43689      	4.947659e-08
1.43834      	4.954699e-08
1.43979      	4.960406e-08
1.44124      	4.966027e-08
1.44269      	4.971821e-08
1.44415      	4.977744e-08
1.4456       	4.983612e-08
1.44705      	4.988905e-08
1.4485       	4.995025e-08
1.44995      	5.001848e-08
1.4514       	5.006539e-08
1.45285      	5.011822e-08
1.4543       	5.017700e-08
1.45576      	5.023038e-08
1.45722      	5.027287e-08
1.45867      	5.031137e-08
1.46013      	5.035048e-08
1.46159      	5.039111e-08
1.46305      	5.042575e-08
1.46451      	5.046418e-08
1.46597      	5.049860e-08
1.46743      	5.053688e-08
1.4689       	5.057290e-08
1.47036      	5.061957e-08
1.47183      	5.065570e-08
1.4733       	5.069463e-08
1.47477      	5.072591e-08
1.47624      	5.075425e-08
1.47771      	5.079720e-08
1.47918      	5.083728e-08
1.48065      	5.086608e-08
1.48212      	5.089764e-08
1.4836       	5.092750e-08
1.48507      	5.096454e-08
1.48654      	5.099622e-08
1.48801      	5.102908e-08
1.48948      	5.106029e-08
1.49094      	5.108945e-08
1.49242      	5.111054e-08
1.49389      	5.112551e-08
1.49536      	5.115184e-08
1.49683      	5.117575e-08
1.4983       	5.120981e-08
1.49978      	5.124026e-08
1.50125      	5.128116e-08
1.50273      	5.131202e-08
1.50421      	5.133205e-08
1.50569      	5.135726e-08
1.50717      	5.139556e-08
1.50865      	5.142904e-08
1.51013      	5.145759e-08
1.51161      	5.146297e-08
1.51309      	5.148105e-08
1.51457      	5.150294e-08
1.51606      	5.149827e-08
1.51754      	5.151107e-08
1.51902      	5.153466e-08
1.52051      	5.154864e-08
1.522        	5.156457e-08
1.52349      	5.157068e-08
1.52498      	5.158716e-08
1.52647      	5.160414e-08
1.52797      	5.162399e-08
1.52946      	5.164321e-08
1.53096      	5.166710e-08
1.53245      	5.169426e-08
1.53394      	5.171425e-08
1.53544      	5.173922e-08
1.53693      	5.175952e-08
1.53843      	5.178059e-08
1.53993      	5.180012e-08
1.54143      	5.181919e-08
1.54293      	5.185269e-08
1.54442      	5.187331e-08
1.54592      	5.189966e-08
1.54742      	5.190672e-08
1.54892      	5.191549e-08
1.55042      	5.194569e-08
1.55192      	5.198708e-08
1.55343      	5.201748e-08
1.55493      	5.204619e-08
1.55643      	5.208868e-08
1.55793      	5.210989e-08
1.55943      	5.214638e-08
1.56092      	5.220506e-08
1.56242      	5.226253e-08
1.56392      	5.232886e-08
1.56542      	5.233066e-08
1.56692      	5.230210e-08
1.56842      	5.229900e-08
1.56992      	5.230740e-08
1.57142      	5.231221e-08
1.57293      	5.232020e-08
1.57443      	5.233333e-08
1.57593      	5.234271e-08
1.57743      	5.235853e-08
1.57893      	5.236964e-08
1.58043      	5.238600e-08
1.58192      	5.240012e-08
1.58342      	5.241617e-08
1.58492      	5.243748e-08
1.58642      	5.246526e-08
1.58792      	5.249466e-08
1.58943      	5.253615e-08
1.59093      	5.257435e-08
1.59244      	5.257960e-08
1.59394      	5.258231e-08
1.59544      	5.259796e-08
1.59695      	5.259467e-08
1.59845      	5.259216e-08
1.59995      	5.260442e-08
1.60146      	5.263734e-08
1.60296      	5.265919e-08
1.60447      	5.267897e-08
1.60598      	5.268839e-08
1.60749      	5.271196e-08
1.60901      	5.271803e-08
1.61052      	5.270884e-08
1.61204      	5.270017e-08
1.61356      	5.269487e-08
1.61508      	5.269805e-08
1.61661      	5.268752e-08
1.61814      	5.267705e-08
1.61967      	5.271129e-08
1.6212       	5.280031e-08
1.62274      	5.290463e-08
1.62428      	5.298457e-08
1.62582      	5.295068e-08
1.62736      	5.290117e-08
1.6289       	5.286900e-08
1.63044      	5.286573e-08
1.63198      	5.286548e-08
1.63352      	5.286702e-08
1.63506      	5.289258e-08