# Region type : patch top
# Faces  :   1000
# Area   :   6.239977e-01
# Time       	sumDirection(phiSub)
0.0119048    	1.536567e-05
0.0132083    	1.352639e-06
0.0145102    	5.996152e-07
0.015812     	3.978096e-07
0.0171173    	3.539906e-07
0.0184226    	3.239065e-07
0.0197261    	3.041218e-07
0.0210297    	2.906984e-07
0.0223315    	2.810371e-07
0.0236316    	2.737570e-07
0.02493      	2.679931e-07
0.0262266    	2.636812e-07
0.0275232    	2.602288e-07
0.0288181    	2.574812e-07
0.030113     	2.555398e-07
0.031408     	2.538645e-07
0.0327029    	2.524605e-07
0.0339978    	2.517945e-07
0.0352927    	2.512693e-07
0.0365876    	2.511129e-07
0.0378825    	2.507519e-07
0.0391774    	2.507694e-07
0.0404706    	2.504097e-07
0.0417637    	2.504693e-07
0.0430552    	2.503633e-07
0.0443466    	2.502523e-07
0.0456363    	2.503791e-07
0.0469259    	2.505390e-07
0.0482139    	2.508202e-07
0.0495001    	2.509635e-07
0.0507845    	2.512127e-07
0.052069     	2.514403e-07
0.0533517    	2.518714e-07
0.0546327    	2.523165e-07
0.0559137    	2.527151e-07
0.0571929    	2.530844e-07
0.0584722    	2.531308e-07
0.0597497    	2.530252e-07
0.0610272    	2.530585e-07
0.062303     	2.532125e-07
0.0635788    	2.533882e-07
0.0648546    	2.535635e-07
0.0661286    	2.537994e-07
0.0674026    	2.539874e-07
0.0686749    	2.540677e-07
0.0699472    	2.540829e-07
0.0712178    	2.541413e-07
0.0724866    	2.541777e-07
0.0737537    	2.542242e-07
0.0750208    	2.541746e-07
0.0762862    	2.540661e-07
0.0775498    	2.540215e-07
0.0788117    	2.542337e-07
0.0800719    	2.540201e-07
0.0813303    	2.536623e-07
0.0825871    	2.535765e-07
0.0838421    	2.535899e-07
0.0850954    	2.535614e-07
0.086347     	2.535813e-07
0.0875968    	2.536717e-07
0.088845     	2.538130e-07
0.0900914    	2.540116e-07
0.0913362    	2.542376e-07
0.0925792    	2.544588e-07
0.0938206    	2.546929e-07
0.0950602    	2.551194e-07
0.0962998    	2.556093e-07
0.0975378    	2.560807e-07
0.098774     	2.565637e-07
0.100009     	2.568958e-07
0.101241     	2.573243e-07
0.102473     	2.577664e-07
0.103702     	2.582600e-07
0.104928     	2.587055e-07
0.106153     	2.591589e-07
0.107375     	2.596804e-07
0.108597     	2.600783e-07
0.109816     	2.605183e-07
0.111032     	2.609693e-07
0.112247     	2.614295e-07
0.113459     	2.618822e-07
0.11467      	2.623425e-07
0.11588      	2.628211e-07
0.117088     	2.633334e-07
0.118294     	2.639373e-07
0.119498     	2.645769e-07
0.120701     	2.651682e-07
0.121903     	2.658361e-07
0.123102     	2.664181e-07
0.1243       	2.670121e-07
0.125496     	2.676259e-07
0.126691     	2.682170e-07
0.127884     	2.687993e-07
0.129075     	2.693714e-07
0.130265     	2.699577e-07
0.131453     	2.706779e-07
0.13264      	2.714769e-07
0.133825     	2.721108e-07
0.135008     	2.728875e-07
0.136188     	2.736168e-07
0.137367     	2.744615e-07
0.138544     	2.752848e-07
0.139719     	2.761298e-07
0.140892     	2.769602e-07
0.142065     	2.777590e-07
0.143235     	2.786673e-07
0.144404     	2.794836e-07
0.145573     	2.802758e-07
0.14674      	2.810697e-07
0.147906     	2.819030e-07
0.14907      	2.826966e-07
0.150234     	2.834981e-07
0.151396     	2.843151e-07
0.152557     	2.851596e-07
0.153718     	2.859306e-07
0.154877     	2.867587e-07
0.156036     	2.875788e-07
0.157194     	2.883812e-07
0.158352     	2.892200e-07
0.159508     	2.901300e-07
0.160664     	2.909799e-07
0.161819     	2.918378e-07
0.162973     	2.927023e-07
0.164126     	2.936236e-07
0.165279     	2.944357e-07
0.16643      	2.952519e-07
0.167582     	2.960887e-07
0.168731     	2.969100e-07
0.16988      	2.976997e-07
0.171028     	2.984404e-07
0.172174     	2.991669e-07
0.173321     	2.999049e-07
0.174466     	3.005953e-07
0.175611     	3.012463e-07
0.176754     	3.018691e-07
0.177898     	3.024411e-07
0.179039     	3.030772e-07
0.180181     	3.036348e-07
0.181322     	3.041838e-07
0.182462     	3.047613e-07
0.183602     	3.053102e-07
0.184741     	3.058490e-07
0.185879     	3.063765e-07
0.187018     	3.069237e-07
0.188155     	3.073526e-07
0.189292     	3.078715e-07
0.190429     	3.081968e-07
0.191566     	3.086005e-07
0.192703     	3.088960e-07
0.193838     	3.092868e-07
0.194974     	3.097266e-07
0.196109     	3.099639e-07
0.197245     	3.102231e-07
0.198379     	3.105796e-07
0.199512     	3.109159e-07
0.200646     	3.113711e-07
0.20178      	3.117084e-07
0.202914     	3.120024e-07
0.204046     	3.122826e-07
0.205177     	3.127077e-07
0.206306     	3.130316e-07
0.207435     	3.132343e-07
0.208562     	3.134220e-07
0.209688     	3.135850e-07
0.210812     	3.137418e-07
0.211936     	3.139269e-07
0.213059     	3.141197e-07
0.21418      	3.142721e-07
0.215301     	3.143816e-07
0.21642      	3.145910e-07
0.21754      	3.147838e-07
0.218658     	3.149777e-07
0.219774     	3.152517e-07
0.22089      	3.155144e-07
0.222005     	3.158715e-07
0.223118     	3.161647e-07
0.224229     	3.164586e-07
0.225339     	3.168168e-07
0.226447     	3.171857e-07
0.227554     	3.174997e-07
0.228659     	3.178595e-07
0.229762     	3.183034e-07
0.230866     	3.188958e-07
0.231968     	3.196199e-07
0.23307      	3.204687e-07
0.23417      	3.211035e-07
0.235269     	3.211682e-07
0.236366     	3.210772e-07
0.23746      	3.209530e-07
0.238552     	3.215264e-07
0.239643     	3.222731e-07
0.240733     	3.229919e-07
0.241822     	3.238697e-07
0.24291      	3.247175e-07
0.243996     	3.256643e-07
0.245082     	3.267354e-07
0.246167     	3.277550e-07
0.247252     	3.285785e-07
0.248336     	3.294634e-07
0.249419     	3.303980e-07
0.250502     	3.313534e-07
0.251584     	3.322954e-07
0.252664     	3.331628e-07
0.253744     	3.343260e-07
0.254822     	3.354607e-07
0.255901     	3.368126e-07
0.256979     	3.377709e-07
0.258057     	3.385657e-07
0.259136     	3.394759e-07
0.260211     	3.410750e-07
0.261285     	3.421915e-07
0.262352     	3.435255e-07
0.263414     	3.444567e-07
0.264469     	3.457841e-07
0.265518     	3.471474e-07
0.266562     	3.484151e-07
0.267599     	3.494500e-07
0.26863      	3.504040e-07
0.269658     	3.513537e-07
0.270679     	3.524039e-07
0.271695     	3.535800e-07
0.272706     	3.548798e-07
0.273714     	3.561173e-07
0.274716     	3.574270e-07
0.275713     	3.584540e-07
0.276707     	3.594133e-07
0.277696     	3.604258e-07
0.278683     	3.613750e-07
0.279666     	3.622006e-07
0.280644     	3.632159e-07
0.28162      	3.641724e-07
0.282594     	3.650623e-07
0.283565     	3.660579e-07
0.284533     	3.671772e-07
0.285498     	3.683951e-07
0.286463     	3.696409e-07
0.287424     	3.709830e-07
0.288385     	3.722927e-07
0.289344     	3.735564e-07
0.290301     	3.748688e-07
0.291258     	3.759406e-07
0.292214     	3.768711e-07
0.293169     	3.779852e-07
0.294125     	3.789430e-07
0.295077     	3.797523e-07
0.296029     	3.807059e-07
0.296977     	3.816088e-07
0.297925     	3.827971e-07
0.29887      	3.838143e-07
0.299813     	3.844274e-07
0.300756     	3.849773e-07
0.301697     	3.854839e-07
0.302638     	3.862211e-07
0.303578     	3.870057e-07
0.304518     	3.877663e-07
0.305456     	3.882755e-07
0.306395     	3.882844e-07
0.307333     	3.888208e-07
0.308272     	3.893378e-07
0.309212     	3.898577e-07
0.310152     	3.904743e-07
0.311093     	3.908840e-07
0.312034     	3.911845e-07
0.312975     	3.914569e-07
0.313915     	3.917838e-07
0.314855     	3.919588e-07
0.315795     	3.923093e-07
0.316733     	3.926099e-07
0.317672     	3.930146e-07
0.318611     	3.935231e-07
0.319551     	3.937221e-07
0.320491     	3.939126e-07
0.321432     	3.937306e-07
0.322375     	3.937892e-07
0.323316     	3.935027e-07
0.324257     	3.932011e-07
0.325198     	3.929292e-07
0.326141     	3.925832e-07
0.327083     	3.924171e-07
0.328026     	3.924633e-07
0.328969     	3.923286e-07
0.329913     	3.923846e-07
0.330858     	3.921962e-07
0.331805     	3.919704e-07
0.332751     	3.920095e-07
0.333699     	3.920768e-07
0.334648     	3.919949e-07
0.335597     	3.918510e-07
0.336546     	3.919231e-07
0.337496     	3.917426e-07
0.338445     	3.914684e-07
0.339395     	3.910683e-07
0.340346     	3.909222e-07
0.341298     	3.906318e-07
0.342249     	3.904575e-07
0.343203     	3.901452e-07
0.344157     	3.897813e-07
0.345113     	3.887971e-07
0.346071     	3.883631e-07
0.34703      	3.878251e-07
0.347989     	3.874376e-07
0.348949     	3.871281e-07
0.349909     	3.867136e-07
0.350871     	3.863053e-07
0.351832     	3.862468e-07
0.352796     	3.859667e-07
0.35376      	3.855075e-07
0.354726     	3.849663e-07
0.355693     	3.844847e-07
0.356662     	3.839834e-07
0.357633     	3.834329e-07
0.358604     	3.828366e-07
0.359576     	3.825431e-07
0.360548     	3.819468e-07
0.361521     	3.812550e-07
0.362495     	3.803463e-07
0.363469     	3.798016e-07
0.364444     	3.792231e-07
0.365419     	3.784814e-07
0.366395     	3.778049e-07
0.367372     	3.773444e-07
0.368349     	3.768789e-07
0.369327     	3.763109e-07
0.370306     	3.756849e-07
0.371287     	3.752350e-07
0.372268     	3.747662e-07
0.37325      	3.742251e-07
0.374234     	3.736282e-07
0.375218     	3.731066e-07
0.376204     	3.723386e-07
0.377189     	3.715807e-07
0.378175     	3.708913e-07
0.37916      	3.702071e-07
0.380147     	3.693074e-07
0.381134     	3.687547e-07
0.382123     	3.681072e-07
0.383111     	3.675483e-07
0.384102     	3.668430e-07
0.385092     	3.661894e-07
0.386084     	3.657479e-07
0.387077     	3.647951e-07
0.38807      	3.638490e-07
0.389065     	3.632479e-07
0.390062     	3.626753e-07
0.391059     	3.619726e-07
0.392055     	3.612983e-07
0.393052     	3.605662e-07
0.394049     	3.598767e-07
0.395047     	3.591588e-07
0.396045     	3.585248e-07
0.397045     	3.578586e-07
0.398045     	3.571583e-07
0.399047     	3.565615e-07
0.400048     	3.558391e-07
0.40105      	3.552218e-07
0.402051     	3.545568e-07
0.403055     	3.538128e-07
0.404058     	3.532215e-07
0.405061     	3.524382e-07
0.406066     	3.517474e-07
0.407071     	3.512375e-07
0.408076     	3.507355e-07
0.409083     	3.499916e-07
0.410091     	3.494550e-07
0.411099     	3.489029e-07
0.41211      	3.484305e-07
0.413121     	3.477080e-07
0.414135     	3.469987e-07
0.415147     	3.463358e-07
0.416157     	3.456665e-07
0.417165     	3.451619e-07
0.418172     	3.449587e-07
0.419177     	3.444517e-07
0.42018      	3.440908e-07
0.421181     	3.436239e-07
0.422183     	3.431096e-07
0.423183     	3.425838e-07
0.424182     	3.422418e-07
0.42518      	3.419272e-07
0.426178     	3.414938e-07
0.427174     	3.409609e-07
0.428171     	3.402923e-07
0.429167     	3.399985e-07
0.430163     	3.394915e-07
0.431159     	3.391100e-07
0.432155     	3.387038e-07
0.433152     	3.382851e-07
0.434148     	3.378085e-07
0.435144     	3.373658e-07
0.43614      	3.369076e-07
0.437138     	3.364542e-07
0.438136     	3.361137e-07
0.439134     	3.357278e-07
0.440134     	3.353704e-07
0.441134     	3.348914e-07
0.442134     	3.344768e-07
0.443135     	3.339756e-07
0.444137     	3.334905e-07
0.44514      	3.330985e-07
0.446143     	3.328068e-07
0.447149     	3.325263e-07
0.448154     	3.322050e-07
0.449159     	3.317832e-07
0.450164     	3.313807e-07
0.451171     	3.310839e-07
0.452178     	3.308272e-07
0.453185     	3.304199e-07
0.454194     	3.299873e-07
0.455203     	3.295581e-07
0.456214     	3.292128e-07
0.457224     	3.289565e-07
0.458237     	3.286493e-07
0.45925      	3.284087e-07
0.460264     	3.280574e-07
0.461281     	3.276492e-07
0.462297     	3.274177e-07
0.463316     	3.270706e-07
0.464336     	3.267260e-07
0.465356     	3.264606e-07
0.466378     	3.262108e-07
0.467403     	3.259919e-07
0.468429     	3.257788e-07
0.469455     	3.257032e-07
0.470483     	3.254587e-07
0.471511     	3.253315e-07
0.472542     	3.250547e-07
0.473572     	3.249050e-07
0.474602     	3.247606e-07
0.475632     	3.247455e-07
0.476664     	3.247626e-07
0.477697     	3.246557e-07
0.478729     	3.245372e-07
0.479763     	3.243878e-07
0.480797     	3.243783e-07
0.481832     	3.242744e-07
0.482868     	3.242525e-07
0.483904     	3.241824e-07
0.484943     	3.240665e-07
0.485981     	3.240181e-07
0.487022     	3.239756e-07
0.488062     	3.240376e-07
0.489105     	3.241737e-07
0.490148     	3.243475e-07
0.491192     	3.243185e-07
0.492239     	3.241921e-07
0.493286     	3.240660e-07
0.494335     	3.239019e-07
0.495387     	3.237117e-07
0.496438     	3.237644e-07
0.497491     	3.234776e-07
0.498545     	3.233825e-07
0.4996       	3.233042e-07
0.500656     	3.233498e-07
0.501714     	3.233540e-07
0.502772     	3.232148e-07
0.50383      	3.232646e-07
0.504888     	3.232924e-07
0.505946     	3.233040e-07
0.507006     	3.231412e-07
0.508066     	3.229060e-07
0.509126     	3.228603e-07
0.510189     	3.228645e-07
0.511251     	3.228561e-07
0.512314     	3.229008e-07
0.513379     	3.228969e-07
0.514444     	3.229811e-07
0.515511     	3.231500e-07
0.516578     	3.232027e-07
0.517647     	3.233391e-07
0.518717     	3.234008e-07
0.519789     	3.235932e-07
0.520861     	3.236269e-07
0.521935     	3.237213e-07
0.523009     	3.239822e-07
0.524086     	3.240515e-07
0.525163     	3.240297e-07
0.526242     	3.240974e-07
0.527321     	3.242051e-07
0.528403     	3.244626e-07
0.529484     	3.247427e-07
0.530569     	3.247109e-07
0.531653     	3.248567e-07
0.532737     	3.251063e-07
0.533821     	3.253026e-07
0.534908     	3.254215e-07
0.535994     	3.256252e-07
0.537081     	3.258150e-07
0.538168     	3.259645e-07
0.539257     	3.261639e-07
0.540346     	3.263822e-07
0.541435     	3.265490e-07
0.542527     	3.269245e-07
0.543619     	3.273079e-07
0.544711     	3.275119e-07
0.545805     	3.281182e-07
0.5469       	3.284197e-07
0.547994     	3.288836e-07
0.549091     	3.291822e-07
0.550188     	3.294588e-07
0.551288     	3.298063e-07
0.552388     	3.303539e-07
0.553485     	3.310396e-07
0.554579     	3.317094e-07
0.555674     	3.323621e-07
0.556765     	3.329227e-07
0.557854     	3.335662e-07
0.558944     	3.341848e-07
0.56003      	3.349608e-07
0.561114     	3.355308e-07
0.562197     	3.357134e-07
0.563278     	3.362383e-07
0.564359     	3.367340e-07
0.565438     	3.369035e-07
0.566516     	3.371430e-07
0.567591     	3.374841e-07
0.568664     	3.381126e-07
0.569737     	3.385655e-07
0.570808     	3.390634e-07
0.571875     	3.395888e-07
0.572943     	3.400633e-07
0.574008     	3.405816e-07
0.575073     	3.412356e-07
0.576138     	3.418720e-07
0.5772       	3.426202e-07
0.578263     	3.431900e-07
0.579325     	3.435097e-07
0.580387     	3.438138e-07
0.58145      	3.441604e-07
0.582512     	3.445096e-07
0.583574     	3.449231e-07
0.584636     	3.453687e-07
0.585699     	3.456278e-07
0.586758     	3.460487e-07
0.587818     	3.464811e-07
0.588878     	3.470494e-07
0.589937     	3.475362e-07
0.590997     	3.479572e-07
0.592054     	3.483804e-07
0.59311      	3.488820e-07
0.594167     	3.493719e-07
0.595221     	3.497846e-07
0.596276     	3.501213e-07
0.59733      	3.504381e-07
0.598384     	3.507693e-07
0.599438     	3.512481e-07
0.600489     	3.517013e-07
0.601541     	3.521848e-07
0.602589     	3.525933e-07
0.603638     	3.530666e-07
0.604686     	3.533455e-07
0.605735     	3.538199e-07
0.606783     	3.542301e-07
0.607832     	3.546764e-07
0.608881     	3.551059e-07
0.609929     	3.555336e-07
0.610975     	3.558166e-07
0.612021     	3.558400e-07
0.613066     	3.559685e-07
0.614112     	3.564372e-07
0.615158     	3.566912e-07
0.616201     	3.571029e-07
0.617244     	3.574888e-07
0.618287     	3.579366e-07
0.61933      	3.582081e-07
0.620373     	3.584632e-07
0.621413     	3.587620e-07
0.622453     	3.591597e-07
0.62349      	3.594655e-07
0.624527     	3.597831e-07
0.625564     	3.600714e-07
0.626599     	3.604374e-07
0.627633     	3.608854e-07
0.628668     	3.611890e-07
0.629702     	3.613389e-07
0.630736     	3.616497e-07
0.631771     	3.619329e-07
0.632805     	3.622144e-07
0.633836     	3.626547e-07
0.634868     	3.630981e-07
0.635899     	3.634173e-07
0.636931     	3.637611e-07
0.637962     	3.640873e-07
0.638991     	3.643756e-07
0.640019     	3.648681e-07
0.641048     	3.651662e-07
0.642076     	3.655069e-07
0.643102     	3.659139e-07
0.644127     	3.661754e-07
0.645153     	3.664811e-07
0.646176     	3.669538e-07
0.647198     	3.672504e-07
0.648218     	3.676877e-07
0.649237     	3.681561e-07
0.650254     	3.686598e-07
0.651271     	3.693947e-07
0.652288     	3.705317e-07
0.653301     	3.724958e-07
0.654315     	3.757565e-07
0.655329     	3.812064e-07
0.656343     	3.892192e-07
0.657353     	3.970691e-07
0.658367     	4.007533e-07
0.659381     	3.982430e-07
0.660392     	3.972279e-07
0.661402     	3.984298e-07
0.662413     	3.994925e-07
0.663424     	3.998121e-07
0.664434     	3.985984e-07
0.665445     	3.984646e-07
0.666456     	3.957404e-07
0.667467     	3.924295e-07
0.668477     	3.900812e-07
0.669488     	3.883120e-07
0.670499     	3.870085e-07
0.67151      	3.862305e-07
0.672517     	3.856247e-07
0.673525     	3.854400e-07
0.674533     	3.853972e-07
0.67554      	3.853963e-07
0.676551     	3.853119e-07
0.677562     	3.852038e-07
0.678573     	3.852472e-07
0.679583     	3.854050e-07
0.680594     	3.855265e-07
0.681605     	3.856773e-07
0.682616     	3.859959e-07
0.683623     	3.864596e-07
0.684631     	3.868284e-07
0.685635     	3.872571e-07
0.68664      	3.874432e-07
0.687644     	3.876197e-07
0.688645     	3.877930e-07
0.689646     	3.879338e-07
0.690647     	3.880480e-07
0.691648     	3.882997e-07
0.69265      	3.885121e-07
0.693651     	3.882019e-07
0.694652     	3.873202e-07
0.69565      	3.866915e-07
0.696648     	3.865348e-07
0.697645     	3.869334e-07
0.698643     	3.875440e-07
0.699641     	3.891947e-07
0.700639     	3.909972e-07
0.701637     	3.897187e-07
0.702635     	3.875644e-07
0.703633     	3.858658e-07
0.704631     	3.846128e-07
0.705628     	3.837689e-07
0.706626     	3.831083e-07
0.707621     	3.827109e-07
0.708615     	3.817671e-07
0.70961      	3.811708e-07
0.710608     	3.805962e-07
0.711602     	3.801955e-07
0.712597     	3.797757e-07
0.713591     	3.795199e-07
0.714586     	3.794749e-07
0.71558      	3.794472e-07
0.716575     	3.794335e-07
0.717569     	3.795072e-07
0.718563     	3.795581e-07
0.719558     	3.794825e-07
0.720552     	3.797065e-07
0.721547     	3.805728e-07
0.722541     	3.816431e-07
0.723536     	3.833557e-07
0.72453      	3.851603e-07
0.725525     	3.840109e-07
0.726519     	3.831806e-07
0.727514     	3.837117e-07
0.728508     	3.855951e-07
0.729503     	3.884590e-07
0.730497     	3.888200e-07
0.731492     	3.858752e-07
0.732486     	3.838660e-07
0.733481     	3.825070e-07
0.734475     	3.813639e-07
0.73547      	3.796421e-07
0.736464     	3.779151e-07
0.737459     	3.785443e-07
0.738457     	3.792941e-07
0.739455     	3.800700e-07
0.740453     	3.812724e-07
0.741448     	3.814329e-07
0.742442     	3.800461e-07
0.74344      	3.785431e-07
0.744439     	3.773950e-07
0.745437     	3.766096e-07
0.746435     	3.758173e-07
0.747434     	3.749759e-07
0.748436     	3.740884e-07
0.749438     	3.732099e-07
0.75044      	3.725802e-07
0.751443     	3.720415e-07
0.752445     	3.714016e-07
0.753447     	3.708847e-07
0.754449     	3.704961e-07
0.755456     	3.700793e-07
0.756462     	3.696930e-07
0.757468     	3.693214e-07
0.758475     	3.689392e-07
0.759481     	3.685685e-07
0.760487     	3.676672e-07
0.761494     	3.667499e-07
0.7625       	3.659200e-07
0.763507     	3.650922e-07
0.764517     	3.643563e-07
0.765528     	3.636026e-07
0.766543     	3.629862e-07
0.767558     	3.624443e-07
0.768577     	3.619517e-07
0.769597     	3.614737e-07
0.770621     	3.613094e-07
0.771645     	3.612164e-07
0.772674     	3.611073e-07
0.773707     	3.608598e-07
0.77474      	3.605533e-07
0.775778     	3.602142e-07
0.776821     	3.596688e-07
0.777869     	3.591569e-07
0.778922     	3.587161e-07
0.779974     	3.584607e-07
0.781032     	3.581933e-07
0.782095     	3.578379e-07
0.783163     	3.575145e-07
0.784231     	3.574430e-07
0.785305     	3.573857e-07
0.786384     	3.569615e-07
0.787463     	3.566553e-07
0.788547     	3.564848e-07
0.789637     	3.563485e-07
0.790727     	3.561655e-07
0.791823     	3.558605e-07
0.792924     	3.557873e-07
0.794026     	3.559950e-07
0.795127     	3.563583e-07
0.796229     	3.568248e-07
0.797336     	3.564790e-07
0.798443     	3.555431e-07
0.799551     	3.551819e-07
0.800658     	3.547308e-07
0.801772     	3.544648e-07
0.802886     	3.541943e-07
0.803999     	3.541002e-07
0.805119     	3.539447e-07
0.806239     	3.536756e-07
0.807359     	3.535072e-07
0.808486     	3.533409e-07
0.809612     	3.531847e-07
0.810739     	3.531867e-07
0.811872     	3.534456e-07
0.813006     	3.537279e-07
0.814139     	3.542394e-07
0.815272     	3.549405e-07
0.816412     	3.548081e-07
0.817553     	3.547479e-07
0.818693     	3.547102e-07
0.819833     	3.547730e-07
0.820981     	3.551906e-07
0.822128     	3.553511e-07
0.823276     	3.538909e-07
0.824424     	3.530736e-07
0.825579     	3.523471e-07
0.826734     	3.518358e-07
0.827889     	3.515501e-07
0.829036     	3.507551e-07
0.830184     	3.500026e-07
0.831331     	3.497464e-07
0.832478     	3.494097e-07
0.833626     	3.490845e-07
0.834765     	3.488783e-07
0.835905     	3.485275e-07
0.837045     	3.479858e-07
0.838184     	3.476926e-07
0.839324     	3.474739e-07
0.840463     	3.473873e-07
0.841603     	3.472087e-07
0.842742     	3.472422e-07
0.843882     	3.468130e-07
0.845021     	3.466236e-07
0.846161     	3.464755e-07
0.8473       	3.464952e-07
0.84844      	3.464178e-07
0.84958      	3.464483e-07
0.850728     	3.460156e-07
0.851876     	3.456371e-07
0.853024     	3.455730e-07
0.854173     	3.454118e-07
0.855321     	3.454613e-07
0.856469     	3.453690e-07
0.857617     	3.452031e-07
0.858766     	3.451821e-07
0.859914     	3.452396e-07
0.861062     	3.452112e-07
0.86221      	3.449429e-07
0.863359     	3.447939e-07
0.864517     	3.447432e-07
0.865675     	3.448655e-07
0.866832     	3.448578e-07
0.86799      	3.446700e-07
0.869148     	3.446874e-07
0.870306     	3.444378e-07
0.871464     	3.443412e-07
0.872622     	3.441309e-07
0.87378      	3.439377e-07
0.874938     	3.436487e-07
0.876107     	3.433456e-07
0.877276     	3.432077e-07
0.878445     	3.432278e-07
0.879614     	3.432474e-07
0.880782     	3.432535e-07
0.881951     	3.430765e-07
0.88312      	3.430875e-07
0.884289     	3.430150e-07
0.885458     	3.429874e-07
0.886626     	3.428767e-07
0.887807     	3.427622e-07
0.888988     	3.427691e-07
0.890169     	3.427531e-07
0.89135      	3.427420e-07
0.892531     	3.428226e-07
0.893712     	3.429268e-07
0.894893     	3.430312e-07
0.896074     	3.430250e-07
0.897255     	3.431721e-07
0.898436     	3.431813e-07
0.899617     	3.432755e-07
0.900798     	3.433244e-07
0.901979     	3.434235e-07
0.90316      	3.434484e-07
0.904341     	3.434034e-07
0.905522     	3.433749e-07
0.906703     	3.431730e-07
0.907884     	3.431492e-07
0.90908      	3.432017e-07
0.910277     	3.432657e-07
0.911473     	3.432762e-07
0.912669     	3.434420e-07
0.913865     	3.435742e-07
0.915062     	3.436977e-07
0.916258     	3.435675e-07
0.917454     	3.435474e-07
0.918651     	3.438279e-07
0.919847     	3.441302e-07
0.921043     	3.442336e-07
0.92224      	3.442807e-07
0.923436     	3.443771e-07
0.924632     	3.445831e-07
0.925829     	3.448376e-07
0.927025     	3.451776e-07
0.928221     	3.454675e-07
0.929418     	3.456760e-07
0.930614     	3.458242e-07
0.93181      	3.459198e-07
0.933006     	3.461033e-07
0.934203     	3.463789e-07
0.935399     	3.465174e-07
0.936595     	3.466801e-07
0.937792     	3.470272e-07
0.938988     	3.474708e-07
0.940184     	3.478425e-07
0.941381     	3.484714e-07
0.942577     	3.489041e-07
0.943773     	3.491443e-07
0.94497      	3.493905e-07
0.946166     	3.497313e-07
0.947362     	3.498103e-07
0.948559     	3.500756e-07
0.949755     	3.504130e-07
0.950951     	3.506737e-07
0.952147     	3.508740e-07
0.953344     	3.511792e-07
0.95454      	3.513828e-07
0.955736     	3.516894e-07
0.956933     	3.517486e-07
0.958129     	3.519869e-07
0.959325     	3.522370e-07
0.960522     	3.524622e-07
0.961718     	3.526562e-07
0.962914     	3.529989e-07
0.964111     	3.532701e-07
0.965307     	3.535655e-07
0.966503     	3.537989e-07
0.9677       	3.540924e-07
0.968896     	3.543257e-07
0.970092     	3.545393e-07
0.971288     	3.548278e-07
0.972485     	3.550546e-07
0.973681     	3.553347e-07
0.974877     	3.554884e-07
0.976074     	3.557740e-07
0.97727      	3.561765e-07
0.978466     	3.565893e-07
0.979663     	3.570545e-07
0.980859     	3.574905e-07
0.982055     	3.582126e-07
0.983252     	3.591696e-07
0.984448     	3.602147e-07
0.985644     	3.607377e-07
0.986841     	3.604510e-07
0.988037     	3.602104e-07
0.989233     	3.602019e-07
0.990429     	3.603529e-07
0.991626     	3.605605e-07
0.992822     	3.607922e-07
0.994018     	3.610661e-07
0.995215     	3.615290e-07
0.996411     	3.618043e-07
0.997607     	3.621852e-07
0.998804     	3.626211e-07
1            	3.629845e-07
1.00121      	3.631791e-07
1.00241      	3.634526e-07
1.00361      	3.636712e-07
1.00482      	3.639234e-07
1.00602      	3.642243e-07
1.00722      	3.645927e-07
1.00841      	3.649377e-07
1.00961      	3.653085e-07
1.0108       	3.656648e-07
1.012        	3.660724e-07
1.01319      	3.665149e-07
1.01438      	3.669005e-07
1.01557      	3.673681e-07
1.01675      	3.677887e-07
1.01794      	3.681910e-07
1.01912      	3.685467e-07
1.0203       	3.689163e-07
1.02148      	3.692244e-07
1.02266      	3.695983e-07
1.02384      	3.699519e-07
1.02501      	3.700760e-07
1.02618      	3.703518e-07
1.02736      	3.706534e-07
1.02852      	3.710308e-07
1.02969      	3.713537e-07
1.03085      	3.717034e-07
1.03201      	3.720265e-07
1.03317      	3.723650e-07
1.03433      	3.727152e-07
1.03549      	3.731040e-07
1.03664      	3.735444e-07
1.03779      	3.740006e-07
1.03894      	3.744866e-07
1.04009      	3.750534e-07
1.04123      	3.755767e-07
1.04237      	3.761811e-07
1.04351      	3.767105e-07
1.04465      	3.771197e-07
1.04578      	3.775828e-07
1.04692      	3.780115e-07
1.04805      	3.784260e-07
1.04918      	3.788194e-07
1.0503       	3.792447e-07
1.05143      	3.797568e-07
1.05255      	3.802947e-07
1.05367      	3.808107e-07
1.05479      	3.811964e-07
1.05591      	3.817153e-07
1.05702      	3.821224e-07
1.05814      	3.824725e-07
1.05925      	3.827914e-07
1.06036      	3.831426e-07
1.06146      	3.836654e-07
1.06256      	3.840125e-07
1.06367      	3.843530e-07
1.06477      	3.848500e-07
1.06586      	3.851034e-07
1.06696      	3.853859e-07
1.06805      	3.858719e-07
1.06915      	3.862659e-07
1.07024      	3.865949e-07
1.07133      	3.869515e-07
1.07242      	3.872943e-07
1.0735       	3.877451e-07
1.07459      	3.881649e-07
1.07567      	3.885221e-07
1.07676      	3.888807e-07
1.07784      	3.892852e-07
1.07892      	3.897025e-07
1.08         	3.901210e-07
1.08108      	3.904395e-07
1.08216      	3.908264e-07
1.08323      	3.910863e-07
1.08431      	3.913180e-07
1.08538      	3.917217e-07
1.08645      	3.920497e-07
1.08753      	3.924535e-07
1.0886       	3.928351e-07
1.08967      	3.932644e-07
1.09074      	3.937446e-07
1.0918       	3.942218e-07
1.09287      	3.946930e-07
1.09394      	3.951523e-07
1.095        	3.956377e-07
1.09607      	3.961385e-07
1.09713      	3.965807e-07
1.0982       	3.970979e-07
1.09926      	3.974997e-07
1.10032      	3.980106e-07
1.10138      	3.985247e-07
1.10244      	3.989335e-07
1.10349      	3.994923e-07
1.10455      	4.000322e-07
1.1056       	4.006340e-07
1.10666      	4.011012e-07
1.10771      	4.016734e-07
1.10877      	4.021570e-07
1.10982      	4.025535e-07
1.11087      	4.030927e-07
1.11192      	4.036330e-07
1.11297      	4.040410e-07
1.11402      	4.042680e-07
1.11507      	4.045761e-07
1.11611      	4.049934e-07
1.11716      	4.054279e-07
1.11821      	4.058939e-07
1.11926      	4.063073e-07
1.1203       	4.066326e-07
1.12135      	4.069649e-07
1.1224       	4.072254e-07
1.12344      	4.076859e-07
1.12448      	4.080779e-07
1.12553      	4.084806e-07
1.12657      	4.089113e-07
1.12761      	4.091865e-07
1.12865      	4.096186e-07
1.1297       	4.100029e-07
1.13074      	4.104354e-07
1.13178      	4.107930e-07
1.13282      	4.111444e-07
1.13386      	4.115563e-07
1.13489      	4.119826e-07
1.13593      	4.123732e-07
1.13697      	4.126752e-07
1.13801      	4.130837e-07
1.13904      	4.134281e-07
1.14008      	4.137201e-07
1.14111      	4.140706e-07
1.14214      	4.143780e-07
1.14317      	4.147161e-07
1.1442       	4.150362e-07
1.14523      	4.153913e-07
1.14626      	4.156888e-07
1.14729      	4.160204e-07
1.14832      	4.162489e-07
1.14935      	4.165052e-07
1.15038      	4.167991e-07
1.15141      	4.171611e-07
1.15244      	4.174130e-07
1.15347      	4.176962e-07
1.15449      	4.180353e-07
1.15552      	4.182861e-07
1.15654      	4.184490e-07
1.15757      	4.186721e-07
1.1586       	4.188807e-07
1.15962      	4.192071e-07
1.16065      	4.194134e-07
1.16168      	4.196751e-07
1.16271      	4.199704e-07
1.16373      	4.202592e-07
1.16476      	4.204915e-07
1.16579      	4.207082e-07
1.16681      	4.209474e-07
1.16784      	4.212461e-07
1.16887      	4.216278e-07
1.1699       	4.218199e-07
1.17092      	4.220449e-07
1.17195      	4.222000e-07
1.17298      	4.224330e-07
1.17401      	4.225888e-07
1.17503      	4.228647e-07
1.17606      	4.230881e-07
1.17708      	4.233019e-07
1.17811      	4.235252e-07
1.17914      	4.238075e-07
1.18016      	4.240276e-07
1.18119      	4.242223e-07
1.18222      	4.243941e-07
1.18325      	4.245654e-07
1.18427      	4.247449e-07
1.1853       	4.249564e-07
1.18633      	4.250697e-07
1.18735      	4.251477e-07
1.18838      	4.252676e-07
1.18941      	4.254051e-07
1.19044      	4.255097e-07
1.19147      	4.255904e-07
1.1925       	4.256952e-07
1.19352      	4.258992e-07
1.19455      	4.260887e-07
1.19558      	4.262426e-07
1.1966       	4.263011e-07
1.19763      	4.264738e-07
1.19866      	4.266666e-07
1.19968      	4.268195e-07
1.20071      	4.269365e-07
1.20174      	4.270744e-07
1.20277      	4.271437e-07
1.2038       	4.272429e-07
1.20483      	4.274050e-07
1.20586      	4.275670e-07
1.20688      	4.277035e-07
1.20791      	4.278410e-07
1.20894      	4.278123e-07
1.20997      	4.279045e-07