# Region type : patch top
# Faces  :   1000
# Area   :   6.239977e-01
# Time       	sum(phiSub)
0.0119048    	-5.495330e-15
0.0136413    	6.763899e-16
0.0153687    	6.046215e-16
0.0170962    	5.363168e-17
0.0188297    	1.328887e-16
0.0205632    	-1.228922e-17
0.0222967    	-2.895267e-16
0.0240302    	6.558398e-16
0.0257607    	7.020034e-16
0.027488     	6.256723e-16
0.0292154    	2.221178e-17
0.0309397    	-2.532265e-16
0.032664     	-1.668831e-16
0.0343883    	1.265156e-17
0.0361126    	-4.676677e-19
0.0378339    	4.996381e-17
0.0395551    	5.405704e-17
0.0412763    	-3.281625e-17
0.0429975    	-5.169140e-17
0.0447188    	3.763314e-17
0.04644      	-2.082380e-17
0.0481612    	2.495604e-16
0.0498794    	2.233207e-16
0.0515975    	2.276937e-16
0.0533156    	-2.363437e-16
0.0550306    	2.406151e-16
0.0567456    	2.030120e-16
0.0584575    	-3.251906e-16
0.0601694    	-4.389226e-16
0.0618782    	-1.536520e-16
0.063587     	-4.208112e-16
0.0652926    	-9.958822e-17
0.0669983    	-9.597329e-17
0.0687009    	-2.608268e-16
0.0704034    	-3.792255e-16
0.072106     	-3.516838e-16
0.0738054    	-3.073913e-16
0.0755049    	-3.889461e-16
0.0772043    	2.586526e-16
0.0789006    	-9.324232e-17
0.0805969    	-7.995801e-17
0.0822932    	1.341435e-16
0.0839896    	-1.685361e-16
0.0856827    	3.837208e-16
0.0873759    	2.011598e-16
0.0890691    	2.296817e-16
0.0907591    	3.462300e-17
0.0924492    	4.110563e-17
0.0941361    	-4.914657e-17
0.095823     	1.015244e-16
0.0975067    	6.397893e-16
0.0991905    	8.452665e-17
0.100871     	3.267729e-16
0.102549     	2.319359e-17
0.104226     	1.878406e-16
0.1059       	-3.210262e-16
0.107572     	-1.127152e-16
0.109243     	-7.338871e-17
0.110911     	3.725335e-17
0.112576     	-2.816068e-17
0.114241     	7.447004e-17
0.115903     	-4.186218e-17
0.117561     	-2.084016e-16
0.11922      	-3.068044e-16
0.120876     	-6.567386e-16
0.122528     	-8.991979e-17
0.124181     	-9.423703e-17
0.12583      	-1.000885e-16
0.127479     	-1.574599e-16
0.129126     	-1.060534e-16
0.130769     	2.699428e-17
0.132412     	-3.185272e-16
0.134052     	-4.625349e-17
0.135689     	-3.898251e-16
0.137326     	-4.120729e-16
0.13896      	-8.548148e-17
0.140591     	-9.720932e-17
0.142218     	-6.157616e-17
0.143846     	-2.340761e-16
0.145471     	-5.394034e-16
0.147092     	-5.931703e-16
0.14871      	-4.263180e-16
0.150329     	-6.659189e-16
0.151944     	-2.159020e-16
0.153556     	-4.293074e-16
0.155169     	-2.231167e-16
0.156778     	-3.122897e-16
0.158387     	-4.685328e-16
0.159993     	-3.923958e-16
0.161596     	-3.424043e-16
0.163199     	-4.478355e-16
0.164799     	-1.963217e-16
0.166399     	-2.930464e-16
0.167996     	-4.151032e-16
0.169593     	-5.449516e-16
0.171187     	-3.312423e-16
0.172781     	-5.950417e-16
0.174372     	1.246960e-18
0.175963     	-1.384582e-16
0.177553     	-1.999887e-16
0.179141     	-2.960073e-16
0.180726     	-3.239239e-16
0.182311     	-5.267602e-16
0.183892     	-7.040260e-16
0.185474     	-2.634453e-16
0.187052     	-1.802972e-16
0.188631     	-2.845712e-16
0.190206     	-5.130057e-16
0.191782     	-1.731660e-16
0.193354     	-4.489199e-16
0.194927     	-3.259747e-16
0.196496     	2.365752e-16
0.198065     	6.347180e-17
0.199635     	3.441619e-16
0.201201     	-4.218647e-16
0.202767     	-2.637387e-16
0.20433      	-4.776660e-16
0.205894     	6.900980e-18
0.207457     	1.336160e-16
0.209017     	-6.082358e-16
0.210577     	-8.144056e-16
0.212137     	-3.313989e-16
0.213694     	-2.748273e-16
0.215251     	-2.362412e-16
0.216808     	-2.607305e-16
0.218362     	-7.079355e-18
0.219916     	-1.533676e-16
0.22147      	-9.304866e-17
0.223024     	-4.339789e-16
0.224575     	-1.995355e-16
0.226126     	-4.569346e-16
0.227677     	-8.471273e-17
0.229224     	-2.287906e-17
0.230772     	-1.524010e-16
0.23232      	-1.524921e-16
0.233868     	2.992992e-16
0.235412     	2.376123e-16
0.236957     	1.912027e-17
0.238501     	-1.018694e-16
0.240046     	-2.607749e-16
0.241591     	-5.733627e-16
0.243135     	-2.205469e-16
0.244677     	-1.007359e-16
0.246218     	3.784053e-16
0.24776      	-2.209757e-16
0.249301     	-6.677659e-16
0.250843     	-1.546583e-16
0.252384     	-5.066784e-16
0.253926     	-2.515335e-16
0.255467     	-2.124526e-16
0.257009     	-3.832154e-17
0.25855      	-3.066565e-16
0.260092     	-7.157513e-17
0.261636     	-2.354255e-16
0.263181     	-2.355174e-16
0.264726     	-3.673017e-16
0.26627      	-2.521001e-17
0.267815     	-2.639823e-16
0.26936      	-1.031983e-16
0.270901     	-1.950885e-16
0.272443     	-1.505111e-16
0.273984     	2.786125e-16
0.275522     	-4.124110e-16
0.27706      	-1.300159e-16
0.278599     	-3.445794e-16
0.280133     	-1.021512e-16
0.281668     	-4.306324e-17
0.283203     	-2.633239e-16
0.284738     	-2.468804e-16
0.28627      	2.591720e-17
0.287801     	-1.478189e-16
0.289333     	-1.577329e-16
0.290865     	-1.938981e-16
0.292396     	-2.014332e-16
0.293924     	-2.886564e-16
0.295453     	-3.590169e-16
0.296978     	-8.465915e-17
0.298503     	-4.557624e-17
0.300028     	7.867940e-17
0.301553     	1.013104e-16
0.303074     	1.508656e-17
0.304596     	-5.050885e-17
0.306114     	1.711495e-17
0.307629     	-5.267019e-17
0.309145     	-3.687601e-17
0.310656     	-2.228584e-16
0.312168     	2.626723e-16
0.313676     	-1.591759e-16
0.315185     	1.767578e-16
0.316693     	-3.250043e-17
0.318198     	-2.007571e-16
0.319703     	-3.036396e-16
0.321208     	-4.210655e-16
0.322713     	-2.623748e-16
0.324219     	2.783559e-17
0.32572      	-2.335910e-16
0.327222     	2.970992e-16
0.32872      	2.259605e-16
0.330219     	1.233868e-16
0.331714     	4.282494e-17
0.333202     	-5.879002e-17
0.334687     	-8.055751e-18
0.336166     	-2.674430e-16
0.337638     	-1.968652e-16
0.339103     	-5.417379e-17
0.340559     	6.728171e-17
0.342008     	-1.370562e-16
0.343451     	1.511326e-16
0.344885     	-8.824736e-17
0.346312     	-1.471729e-16
0.347733     	-2.861011e-16
0.349145     	2.907263e-17
0.350551     	2.169824e-16
0.35195      	3.944098e-16
0.353344     	-9.305352e-18
0.354732     	-1.702022e-16
0.356113     	5.573362e-17
0.357489     	-3.117272e-18
0.358859     	6.070902e-17
0.360223     	9.051824e-17
0.361582     	-1.916226e-16
0.362937     	-2.328090e-16
0.364287     	-1.710830e-16
0.365634     	-1.646420e-16
0.366975     	-1.402774e-16
0.368313     	-3.517783e-18
0.369646     	1.367533e-16
0.370976     	1.464485e-16
0.372303     	-1.631480e-16
0.373627     	-3.186722e-17
0.374948     	-7.700857e-17
0.376267     	4.135252e-17
0.377583     	-1.073356e-16
0.378899     	1.917103e-17
0.380212     	6.109908e-17
0.381525     	6.979495e-17
0.382835     	2.144019e-16
0.384146     	-1.724938e-16
0.385456     	1.658589e-17
0.386766     	-1.549844e-18
0.388077     	1.602437e-16
0.389387     	-1.758522e-17
0.390697     	4.888651e-17
0.392008     	1.824940e-16
0.393315     	-1.289251e-16
0.394623     	1.983996e-17
0.39593      	-1.082257e-16
0.397238     	3.027295e-17
0.398542     	-1.079192e-16
0.399847     	2.484012e-17
0.401152     	-2.120303e-17
0.402456     	-5.189809e-17
0.403764     	6.651606e-17
0.405071     	3.730157e-17
0.406379     	1.037239e-16
0.407687     	1.715511e-17
0.408994     	-3.297832e-17
0.410302     	4.482062e-17
0.411609     	1.569233e-16
0.412917     	-2.216357e-16
0.414221     	6.038361e-17
0.415523     	-3.650484e-16
0.416825     	-6.144519e-18
0.418124     	-1.872545e-16
0.419422     	1.336232e-16
0.420721     	-2.806269e-17
0.42202      	2.740875e-18
0.423319     	-1.024444e-16
0.424618     	1.614668e-16
0.425917     	6.872588e-17
0.427215     	-4.548089e-17
0.428517     	-6.890353e-17
0.429819     	1.337966e-16
0.431124     	-6.250451e-17
0.432429     	-7.326201e-17
0.433736     	-2.083565e-16
0.435044     	-4.797210e-17
0.436352     	-7.593143e-17
0.43766      	-7.158650e-17
0.438967     	-1.318190e-16
0.440275     	-8.989059e-17
0.441583     	2.059814e-17
0.442894     	1.888350e-16
0.444205     	-1.031201e-16
0.445515     	1.022624e-16
0.446826     	-1.263049e-19
0.448137     	-1.220467e-16
0.449448     	1.133664e-16
0.450759     	5.253693e-18
0.45207      	-2.095678e-16
0.453384     	-1.287210e-16
0.454698     	1.925812e-17
0.456012     	3.725802e-17
0.457329     	3.419468e-16
0.458646     	3.578017e-17
0.459966     	-3.352438e-17
0.461287     	-1.858834e-16
0.46261      	-1.092014e-16
0.463934     	9.537724e-18
0.465261     	6.425734e-17
0.466588     	1.838410e-17
0.467918     	2.175018e-16
0.469248     	9.726271e-17
0.470578     	-3.177600e-17
0.471912     	-1.391853e-16
0.473245     	-1.203289e-16
0.474579     	-9.789271e-17
0.475912     	-5.070930e-17
0.477249     	-2.584676e-16
0.478586     	-1.241375e-16
0.479923     	-1.074933e-16
0.48126      	1.457366e-16
0.482597     	4.973144e-17
0.483938     	1.306881e-16
0.485278     	-3.018119e-16
0.486619     	-7.926350e-17
0.487959     	2.481226e-18
0.489299     	4.783578e-17
0.490643     	-1.017757e-16
0.491987     	-6.615688e-17
0.493331     	-7.064485e-17
0.494679     	-2.598278e-16
0.496026     	2.003828e-16
0.497374     	-9.439994e-17
0.498725     	-1.211799e-16
0.500076     	-1.369222e-16
0.501431     	-2.131134e-18
0.502786     	-1.280981e-16
0.504144     	1.104412e-16
0.505503     	-9.722036e-17
0.506861     	-6.151056e-18
0.508223     	-6.364392e-17
0.509586     	-1.169091e-16
0.510948     	-2.665134e-16
0.51231      	-8.521967e-18
0.513673     	2.506720e-17
0.515035     	7.353583e-17
0.516397     	-1.097346e-16
0.517759     	2.757248e-17
0.519122     	3.130983e-16
0.520484     	-4.444376e-17
0.521846     	-2.987725e-16
0.523212     	5.844564e-18
0.524578     	-2.272377e-16
0.525945     	1.065797e-16
0.527311     	8.730928e-17
0.528681     	1.966788e-17
0.530051     	2.473908e-17
0.531421     	-1.057309e-16
0.532795     	1.206537e-16
0.534169     	-1.949107e-16
0.535543     	-7.267637e-17
0.536914     	-5.176505e-17
0.53828      	-1.859959e-16
0.539646     	-1.040501e-16
0.541008     	-1.863286e-16
0.54237      	1.195635e-16
0.543728     	2.088654e-17
0.545086     	5.559177e-17
0.546439     	8.209093e-17
0.547793     	-3.416729e-17
0.549143     	-3.217998e-16
0.550493     	-4.581771e-17
0.551843     	-1.588791e-16
0.553193     	-2.772396e-17
0.554539     	1.419512e-17
0.555884     	-5.345380e-17
0.55723      	-1.752382e-17
0.558576     	-4.877782e-17
0.559922     	-1.701576e-16
0.561268     	-5.188957e-17
0.562613     	-6.908239e-17
0.563959     	-2.495318e-16
0.565309     	-2.146980e-17
0.566659     	-8.582606e-17
0.568009     	-8.453969e-17
0.569359     	-1.039127e-16
0.570713     	-7.989771e-18
0.572068     	-1.495024e-16
0.573422     	-3.351114e-16
0.57478      	-1.031523e-16
0.576139     	-1.995626e-16
0.577497     	-3.032662e-16
0.57886      	-1.505622e-17
0.580223     	-4.797790e-18
0.581591     	-1.484832e-16
0.582958     	-1.780674e-16
0.584325     	-2.466160e-16
0.585697     	-8.838300e-17
0.587069     	1.957227e-16
0.588441     	-5.337393e-17
0.589817     	-4.451704e-16
0.591194     	-4.549943e-17
0.59257      	-2.315644e-17
0.593951     	-2.493046e-16
0.595332     	-1.213121e-16
0.596714     	-3.324065e-16
0.598095     	-1.091046e-16
0.599476     	6.364593e-17
0.600862     	3.111808e-17
0.602248     	7.421072e-17
0.603633     	-2.049439e-16
0.605024     	-5.511522e-17
0.606415     	-1.899361e-16
0.607806     	3.933737e-17
0.609201     	-7.591936e-17
0.610597     	-1.736914e-16
0.611993     	-2.181779e-16
0.613394     	-1.721367e-16
0.614794     	-1.147709e-16
0.6162       	3.248921e-17
0.617606     	-2.401887e-16
0.619012     	-1.004127e-16
0.620423     	-9.966905e-17
0.621834     	-9.735313e-17
0.623245     	-1.657653e-16
0.624656     	-1.320859e-16
0.626073     	-1.339204e-16
0.627489     	1.436748e-17
0.628905     	-1.180778e-16
0.630322     	-5.146433e-17
0.631738     	-7.342150e-18
0.63316      	-3.924600e-16
0.634582     	-3.732181e-16
0.636004     	-1.938673e-16
0.637426     	-2.059010e-16
0.638853     	6.920855e-17
0.640281     	1.022723e-16
0.641708     	-2.715547e-17
0.643135     	-3.507151e-16
0.644569     	5.763520e-17
0.646002     	-2.139946e-16
0.647435     	2.485347e-17
0.648874     	-2.954954e-16
0.650313     	-1.533013e-16
0.651752     	-1.691089e-16
0.653197     	-2.156241e-16
0.654642     	-4.494881e-17
0.656087     	-1.565579e-16
0.657532     	-1.409830e-16
0.658983     	4.075842e-16
0.660434     	5.405078e-17
0.661886     	-3.327246e-18
0.663343     	7.742193e-17
0.6648       	2.394566e-17
0.666258     	1.989324e-16
0.667715     	2.070000e-16
0.669173     	1.131478e-16
0.67063      	2.384303e-17
0.672094     	-6.982866e-16
0.673558     	1.303893e-16
0.675022     	-3.092573e-17
0.676485     	4.198410e-18
0.677956     	-4.900134e-17
0.679426     	-5.229874e-17
0.680897     	-3.884517e-16
0.682368     	-1.004122e-16
0.683845     	-6.862976e-17
0.685322     	-1.023655e-16
0.6868       	-1.705426e-16
0.688277     	-2.817269e-16
0.689754     	1.197239e-16
0.691239     	1.436397e-16
0.692723     	3.613593e-16
0.694208     	8.876418e-17
0.695692     	1.557206e-15
0.697184     	3.469880e-16
0.698675     	1.697291e-16
0.700167     	8.794284e-17
0.701666     	-3.583563e-17
0.703165     	-3.667467e-17
0.704665     	-7.241729e-17
0.706156     	-1.202140e-16
0.707648     	3.290478e-17
0.709132     	8.322343e-17
0.710616     	-1.085136e-16
0.712092     	-2.361036e-16
0.713569     	-2.816202e-16
0.715038     	2.310629e-17
0.716507     	-1.445995e-17
0.717975     	-7.758350e-17
0.719437     	5.709523e-17
0.720898     	-3.344436e-17
0.722359     	9.009838e-17
0.723813     	2.362535e-16
0.725266     	1.109368e-16
0.72672      	1.414961e-16
0.728166     	1.766741e-16
0.729612     	-6.662365e-17
0.731058     	3.567258e-16
0.732504     	4.688520e-16
0.73395      	9.788514e-17
0.735388     	3.784236e-17
0.736826     	1.664767e-15
0.738264     	1.304541e-15
0.739702     	4.440073e-17
0.741132     	-2.529966e-16
0.742563     	-5.705696e-17
0.743993     	-2.278504e-16
0.745423     	-4.238938e-17
0.746853     	3.047146e-17
0.748275     	-2.110875e-16
0.749698     	3.942208e-17
0.75112      	-2.601395e-16
0.752542     	-9.956249e-17
0.753964     	-2.396699e-16
0.755386     	-1.769164e-16
0.756808     	-3.098678e-16
0.758231     	-1.317778e-16
0.759644     	-2.083277e-16
0.761058     	-2.936524e-16
0.762472     	-2.180144e-17
0.763886     	-5.602316e-17
0.7653       	-1.012529e-16
0.766714     	6.103038e-18
0.768128     	6.678358e-17
0.769541     	2.306011e-16
0.770955     	3.054954e-16
0.772369     	-2.058459e-16
0.773783     	1.400695e-16
0.775188     	8.410582e-17
0.776593     	-3.358092e-18
0.777998     	-4.024230e-16
0.779403     	-2.361547e-16
0.780808     	-2.825504e-16
0.782213     	-7.937924e-17
0.783618     	-6.122049e-17
0.785024     	-2.497227e-17
0.786429     	-7.461845e-17
0.787834     	6.240873e-16
0.789239     	-9.807226e-17
0.790644     	5.406555e-16
0.792049     	1.158034e-16
0.793454     	2.042114e-16
0.794859     	1.812248e-16
0.796255     	4.702601e-16
0.79765      	2.333789e-16
0.799046     	2.241239e-16
0.800441     	2.842469e-16
0.801837     	1.206290e-16
0.803232     	-3.634437e-16
0.804628     	-1.262596e-16
0.806023     	3.341361e-16
0.807419     	-9.968729e-17
0.808814     	1.558375e-17
0.81021      	1.744120e-16
0.811595     	3.217476e-16
0.81298      	-8.109869e-17
0.814366     	5.056046e-16
0.815751     	4.060606e-16
0.817147     	2.851180e-17
0.818543     	4.373414e-16
0.819928     	5.322745e-16
0.821313     	1.797831e-16
0.822698     	-9.617444e-17
0.824083     	-2.041748e-16
0.825469     	3.032774e-16
0.826854     	7.908825e-16
0.828239     	7.637589e-17
0.829624     	2.159747e-16
0.831009     	6.913026e-18
0.832394     	2.446051e-16
0.83378      	1.884878e-15
0.835165     	6.414266e-17
0.836538     	1.761490e-15
0.837912     	2.571655e-15
0.839286     	1.536145e-15
0.840659     	5.140891e-16
0.842033     	5.744086e-16
0.843407     	-3.134252e-15
0.84478      	-4.318089e-15
0.846154     	2.408132e-15
0.847527     	1.065165e-15
0.848889     	-1.276096e-16
0.85025      	5.677660e-17
0.851612     	1.914098e-16
0.852973     	5.954029e-17
0.854334     	6.782779e-17
0.855696     	1.490627e-16
0.857057     	-2.424322e-16
0.858418     	2.306755e-15
0.85978      	1.881556e-15
0.861141     	9.023561e-16
0.862502     	-4.301641e-16
0.863864     	-1.134646e-16
0.865225     	1.571849e-16
0.866586     	-2.462233e-16
0.867948     	2.704389e-16
0.869309     	2.084816e-15
0.870671     	1.469325e-15
0.872032     	7.110672e-16
0.873393     	-3.147503e-16
0.874755     	3.209350e-16
0.876116     	2.763827e-16
0.877463     	3.485804e-16
0.878809     	-2.810594e-16
0.880156     	7.513041e-17
0.881502     	4.804848e-16
0.882849     	2.010835e-16
0.884195     	1.399987e-16
0.885542     	1.625364e-15
0.886889     	3.070196e-16
0.888235     	8.461585e-16
0.889582     	1.227558e-15
0.890928     	7.820077e-16
0.892275     	4.372142e-16
0.893621     	7.097369e-16
0.894968     	-7.670715e-16
0.896314     	-1.480437e-15
0.897661     	1.551060e-15
0.899008     	-6.525061e-16
0.900354     	-9.288022e-16
0.901701     	-5.678199e-16
0.903047     	1.082489e-16
0.904394     	-8.270738e-16
0.905722     	-7.634956e-16
0.90705      	-4.144763e-16
0.908377     	-6.134618e-16
0.909705     	-1.380406e-16
0.911033     	-5.190597e-16
0.912361     	-7.211304e-16
0.913689     	-7.277738e-16
0.915017     	2.006403e-16
0.916345     	-2.544009e-16
0.917673     	7.970929e-16
0.919        	3.229601e-15
0.920328     	1.791652e-15
0.921656     	1.301135e-16
0.922984     	1.648282e-15
0.924312     	6.563824e-16
0.92564      	1.894349e-15
0.926968     	-2.761830e-15
0.928295     	-2.446167e-15
0.929623     	1.202754e-15
0.930951     	1.340406e-15
0.932279     	-2.832258e-15
0.933607     	-1.622468e-15
0.934935     	-1.245225e-15
0.936263     	-8.032265e-16
0.93759      	-3.501058e-16
0.938918     	-2.873405e-16
0.940246     	-1.995139e-16
0.941574     	-4.730315e-16
0.942902     	-3.816605e-16
0.94423      	-1.105380e-16
0.945558     	-2.253369e-16
0.946885     	-5.624994e-16
0.948213     	4.096907e-15
0.949541     	2.548113e-15
0.950869     	9.413384e-16
0.952197     	1.767169e-15
0.953525     	-2.781859e-15
0.954853     	-3.404617e-15
0.956181     	-1.738671e-15
0.957508     	1.244644e-15
0.958836     	-3.786014e-16
0.960164     	-2.805754e-17
0.961492     	6.254299e-16
0.96282      	1.381932e-15
0.964148     	1.195244e-15
0.965476     	8.673706e-16
0.966803     	1.825998e-15
0.968131     	-1.593927e-15
0.969459     	-2.760490e-16
0.970787     	1.016930e-15
0.972115     	1.340552e-15
0.973443     	8.633937e-16
0.974771     	-3.323962e-16
0.976098     	1.333400e-15
0.977426     	3.725010e-16
0.978754     	1.314206e-15
0.980082     	-1.700884e-16
0.98141      	3.193138e-15
0.982738     	1.489100e-15
0.984066     	4.391195e-15
0.985394     	1.180781e-15
0.986721     	2.295437e-15
0.988049     	-3.615209e-15
0.989377     	-2.795111e-15
0.990705     	2.200312e-16
0.992033     	-4.882904e-16
0.993361     	-1.831552e-16
0.994689     	-1.720513e-16
0.996016     	-5.262511e-17
0.997344     	3.004195e-16
0.998672     	6.228294e-16
1            	4.287954e-16
1.00139      	1.759285e-16
1.00277      	2.767360e-16
1.00416      	-2.370007e-17
1.00556      	-6.975121e-17
1.00696      	1.303383e-16
1.00836      	-1.042103e-16
1.00977      	-1.465613e-16
1.01118      	1.059863e-16
1.0126       	-1.042756e-16
1.01402      	1.951743e-16
1.01545      	-1.442951e-16
1.01688      	3.357396e-16
1.01832      	-6.293180e-17
1.01977      	2.239651e-16
1.02122      	-4.002823e-16
1.02268      	8.642695e-17
1.02414      	1.599182e-17
1.02561      	4.137114e-16
1.02709      	1.275855e-16
1.02857      	-2.475254e-16
1.03006      	-4.284332e-16
1.03154      	-1.492390e-16
1.03303      	7.992992e-17
1.03452      	5.676752e-17
1.03601      	1.924727e-16
1.03751      	-3.490754e-17
1.039        	3.329652e-16
1.0405       	-1.639936e-17
1.04201      	-4.026293e-19
1.04351      	-1.498136e-16
1.04502      	3.832966e-16
1.04654      	3.279688e-16
1.04805      	-1.253671e-17
1.04955      	2.877081e-15
1.05106      	2.475472e-15
1.05257      	8.781598e-16
1.05408      	3.149369e-16
1.05558      	-3.803799e-16
1.05709      	-1.009818e-16
1.05859      	-2.584896e-17
1.06009      	1.286102e-16
1.0616       	3.587813e-17
1.06309      	9.831654e-17
1.06459      	5.495805e-17
1.06609      	1.690765e-16
1.06759      	4.126161e-17
1.06909      	1.797356e-17
1.07059      	5.702624e-16
1.07209      	7.456747e-17
1.07359      	4.875746e-17
1.0751       	2.803656e-15
1.0766       	9.976129e-16
1.07811      	-1.826789e-16
1.07961      	1.763517e-16
1.08111      	4.698222e-16
1.08262      	3.100611e-16
1.08412      	1.633399e-15
1.08563      	2.384850e-15
1.08713      	4.916139e-16
1.08864      	-1.471122e-16
1.09015      	-1.466901e-16
1.09166      	1.117457e-16
1.09317      	-1.618497e-16
1.09468      	-1.658969e-16
1.0962       	-5.839721e-18
1.09772      	2.835422e-16
1.09924      	1.714139e-16
1.10076      	5.600191e-17
1.10229      	2.415244e-17
1.10381      	-1.466279e-16
1.10534      	8.303286e-17
1.10686      	1.701006e-16
1.10839      	3.195842e-16
1.10992      	2.755658e-16
1.11145      	4.254552e-16
1.11299      	4.997808e-16
1.11452      	3.506234e-17
1.11606      	2.012135e-16
1.1176       	7.126030e-16
1.11914      	-6.253492e-16
1.12068      	1.680801e-15
1.12222      	-1.013717e-16
1.12377      	5.108838e-17
1.12532      	-1.635982e-18
1.12687      	1.591780e-16
1.12842      	3.173056e-17
1.12997      	5.671746e-17
1.13152      	-7.171843e-17
1.13307      	1.798021e-16
1.13462      	1.835019e-17
1.13617      	-1.855260e-16
1.13772      	5.962777e-17
1.13927      	-3.763386e-17
1.14082      	-1.250495e-16
1.14236      	2.497676e-17
1.14391      	-1.087381e-16
1.14546      	7.015875e-17
1.14701      	9.091574e-17
1.14856      	1.330041e-16
1.15011      	2.348992e-16
1.15166      	2.661860e-16
1.15321      	1.340940e-15
1.15476      	-3.522895e-16
1.15632      	-4.727662e-16
1.15787      	-2.753471e-16
1.15943      	2.874157e-17
1.16099      	-1.813699e-16
1.16254      	-6.704071e-17
1.1641       	-1.687197e-16
1.16566      	-7.411160e-18
1.16721      	-2.069771e-16
1.16877      	2.623613e-17
1.17033      	-3.062739e-16
1.17189      	-4.462824e-16
1.17345      	-3.082386e-16
1.17502      	-2.277421e-16
1.17658      	-1.965121e-16
1.17815      	-9.243171e-17
1.17972      	-9.015739e-17
1.18128      	-1.109459e-16
1.18285      	-1.856531e-17
1.18442      	-1.079226e-16
1.18599      	-8.200560e-17
1.18757      	-2.114233e-16
1.18914      	-1.172414e-16
1.19072      	6.469163e-17
1.19229      	-1.468310e-16
1.19386      	-2.511574e-16
1.19544      	-1.718920e-16
1.19702      	-6.140262e-17
1.1986       	1.080158e-16
1.20017      	-3.186287e-16
1.20176      	-3.331722e-16
1.20334      	-4.663159e-16
1.20492      	-4.454307e-16
1.2065       	-9.237441e-18
1.20808      	-2.552725e-16
1.20966      	-4.031910e-16
1.21125      	-2.084679e-16
1.21284      	-3.720635e-16
1.21442      	-5.022710e-16
1.21601      	-2.453260e-16
1.2176       	-2.029937e-16
1.21919      	-3.300663e-16
1.22078      	-2.966817e-16
1.22238      	-2.085581e-16
1.22397      	-1.579211e-16
1.22556      	-1.707677e-16
1.22716      	-3.209575e-16
1.22875      	-5.998701e-16
1.23034      	2.315723e-16
1.23193      	-4.904838e-16
1.23351      	-5.496189e-16
1.2351       	-4.347746e-16
1.23668      	-5.689862e-16
1.23826      	-5.617270e-16
1.23984      	-5.755654e-16
1.24142      	-1.239514e-16
1.243        	-7.803502e-16
1.24457      	-8.296667e-16
1.24615      	-1.216300e-15
1.24773      	-4.480946e-16
1.2493       	-1.157479e-15
1.25087      	-8.958705e-16
1.25245      	-1.472901e-15
1.25402      	-2.699570e-16
1.25559      	-1.431081e-16
1.25716      	-6.508428e-16
1.25873      	-1.189531e-16
1.2603       	-3.700973e-16
1.26187      	-3.296538e-16
1.26344      	5.856806e-17
1.26501      	2.706643e-16
1.26657      	-5.555984e-16
1.26814      	-4.314714e-16
1.26971      	-3.125813e-16
1.27128      	1.507078e-16
1.27285      	-8.334445e-16
1.27442      	-8.214316e-16
1.27599      	-3.696540e-16
1.27756      	-4.960209e-16
1.27913      	-5.087613e-16
1.2807       	-9.073507e-16
1.28227      	-8.244415e-16
1.28384      	-5.133527e-16
1.28541      	-1.767314e-16
1.28699      	-3.552195e-16
1.28856      	-7.682859e-16
1.29014      	-1.061308e-15
1.29171      	-8.891480e-16
1.29329      	-1.803156e-16
1.29487      	7.525192e-17
1.29645      	4.257854e-16
1.29803      	-1.713433e-16
1.29961      	1.631392e-16
1.3012       	-7.860510e-16
1.30278      	8.777999e-17
1.30437      	-8.868142e-16
1.30595      	-2.708025e-16
1.30754      	3.667819e-17
1.30913      	-1.961779e-16
1.31072      	-3.018848e-16
1.31231      	-1.849086e-16
1.31391      	-2.870583e-16
1.3155       	-3.377283e-16
1.31709      	-2.456232e-16
1.31869      	-7.358245e-17
1.32028      	-1.709618e-16
1.32187      	-6.835050e-16
1.32345      	-3.045422e-17
1.32503      	-4.437265e-16
1.3266       	-6.329097e-16
1.32817      	-3.357457e-16
1.32974      	-6.100078e-16
1.33129      	-4.848853e-16
1.33285      	-6.878358e-17
1.33439      	-5.657052e-16
1.33594      	-5.871618e-16
1.33748      	-1.570060e-16
1.33901      	-3.757007e-16
1.34054      	-1.341561e-16
1.34206      	-2.640798e-16
1.34358      	-1.529694e-16
1.34509      	-2.933618e-16
1.3466       	-1.268069e-16
1.34811      	2.649312e-17
1.34961      	1.530071e-16
1.35111      	-2.969032e-16
1.3526       	5.249813e-16
1.3541       	-7.180199e-16
1.35558      	-6.477897e-16
1.35707      	-1.849749e-16
1.35855      	1.385647e-16
1.36003      	-2.242244e-16
1.36151      	-2.917381e-16
1.36298      	-4.805174e-17
1.36445      	-5.342982e-17
1.36592      	-2.517593e-16
1.36739      	-2.090452e-16
1.36886      	-1.770838e-16
1.37032      	-2.791639e-16
1.37178      	8.815716e-17
1.37325      	-1.092418e-16
1.3747       	-2.161932e-16
1.37616      	2.398710e-17
1.37761      	-3.789863e-16
1.37906      	-1.182344e-16
1.38051      	-4.119030e-16
1.38196      	2.352195e-16
1.38341      	-2.803333e-16
1.38485      	-1.511577e-16
1.3863       	-3.129613e-16
1.38775      	-3.518294e-16
1.3892       	-3.898906e-16
1.39064      	-5.229153e-16
1.39209      	-5.080002e-16
1.39354      	-1.164547e-16
1.39499      	-6.304312e-16
1.39643      	-1.770814e-16
1.39788      	-6.624394e-17
1.39933      	2.402823e-17
1.40077      	2.621219e-16
1.40222      	-9.810859e-17
1.40366      	4.033415e-16
1.40511      	-2.378839e-16
1.40655      	-2.088600e-16
1.408        	-7.905797e-17
1.40944      	-4.199676e-16
1.41089      	1.339312e-16
1.41233      	-3.358304e-16
1.41378      	-3.773773e-16
1.41522      	-2.828160e-16
1.41667      	-7.303021e-17
1.41811      	-1.406288e-16
1.41955      	-4.187695e-16
1.42099      	-2.518785e-16
1.42243      	6.362105e-16
1.42388      	3.699527e-16
1.42532      	-2.317357e-16
1.42677      	8.785160e-16
1.42821      	-2.341745e-16
1.42965      	9.828572e-18
1.4311       	-1.219595e-16
1.43254      	-6.676062e-17
1.43399      	5.345806e-16
1.43544      	4.819378e-16
1.43689      	-1.435923e-16
1.43834      	-7.984790e-17
1.43979      	1.863311e-16
1.44124      	2.022868e-16
1.44269      	7.987091e-16
1.44415      	2.032978e-16
1.4456       	2.949741e-16
1.44705      	6.544682e-16
1.4485       	3.301842e-16
1.44995      	1.353378e-16
1.4514       	3.878811e-16
1.45285      	-2.038838e-16
1.4543       	-2.666822e-16
1.45576      	2.105227e-16
1.45722      	2.637184e-16
1.45867      	4.021075e-16
1.46013      	4.042167e-16
1.46159      	-3.818946e-17
1.46305      	4.780056e-16
1.46451      	4.750392e-17
1.46597      	1.292295e-16
1.46743      	-7.993359e-16
1.4689       	2.130566e-16
1.47036      	1.716197e-16
1.47183      	1.515347e-16
1.4733       	7.503490e-19
1.47477      	3.960596e-16
1.47624      	3.122631e-16
1.47771      	4.391193e-16
1.47918      	6.425118e-16
1.48065      	-1.479030e-16
1.48212      	6.175495e-16
1.4836       	-1.106755e-16
1.48507      	-8.904600e-17
1.48654      	-5.852017e-16
1.48801      	-6.413976e-16
1.48948      	5.486883e-16
1.49094      	2.957433e-16
1.49242      	1.996524e-16
1.49389      	-7.623285e-17
1.49536      	2.908463e-16
1.49683      	1.188693e-15
1.4983       	5.626739e-16
1.49978      	4.308091e-16
1.50125      	-2.594568e-16
1.50273      	3.217116e-16
1.50421      	4.794472e-16
1.50569      	-1.334564e-16
1.50717      	4.397905e-16
1.50865      	-3.686578e-16
1.51013      	6.297396e-16
1.51161      	3.837200e-16
1.51309      	3.394737e-16
1.51457      	-8.148707e-16
1.51606      	-2.066199e-16
1.51754      	-5.847565e-16
1.51902      	7.793083e-16
1.52051      	5.333319e-16
1.522        	4.367837e-16
1.52349      	1.408651e-16
1.52498      	-5.415074e-16
1.52647      	5.190654e-16
1.52797      	5.553824e-16
1.52946      	2.731408e-16
1.53096      	7.167463e-16
1.53245      	1.214648e-16
1.53394      	7.722083e-16
1.53544      	-7.670179e-16
1.53693      	-1.087586e-16
1.53843      	-7.489305e-16
1.53993      	-5.536818e-16
1.54143      	-1.239042e-15
1.54293      	-1.302505e-15
1.54442      	-8.584223e-16
1.54592      	-1.466493e-15
1.54742      	3.516104e-16
1.54892      	-7.814412e-16
1.55042      	1.439496e-15
1.55192      	-9.824623e-16
1.55343      	1.457739e-16
1.55493      	-2.856666e-16
1.55643      	-3.019651e-16
1.55793      	-5.295339e-16
1.55943      	-5.111395e-16
1.56092      	2.115914e-16
1.56242      	-1.305479e-15
1.56392      	3.418824e-16
1.56542      	6.488264e-16
1.56692      	1.142740e-15
1.56842      	3.333664e-16
1.56992      	9.905464e-16
1.57142      	-1.610125e-15
1.57293      	-1.071473e-15
1.57443      	8.524555e-16
1.57593      	-1.466795e-15
1.57743      	-8.108608e-16
1.57893      	-9.778927e-16
1.58043      	1.974312e-15
1.58192      	2.977656e-15
1.58342      	1.468216e-15
1.58492      	6.094839e-16
1.58642      	-2.819946e-16
1.58792      	-1.445701e-16
1.58943      	3.880745e-16
1.59093      	1.273798e-15
1.59244      	9.459394e-16
1.59394      	6.165554e-16
1.59544      	-7.220417e-16
1.59695      	6.135223e-16
1.59845      	5.534011e-16